DATA (written by ASE)

54 	 atoms
1  atom types

0.0      8.6303750400000006  xlo xhi
0.0      8.6303750400000006  ylo yhi
0.0      8.6303750400000006  zlo zhi

Masses

1 55.845


Atoms

     1   1                       0                       0                       0 0 0 0 0
     2   1                       0                       0      2.8767916800000002 0 0 0 0
     3   1                       0                       0      5.7535833600000004 0 0 0 0
     4   1                       0      2.8767916800000002                       0 0 0 0 0
     5   1      2.8767916800000002                       0                       0 0 0 0 0
     6   1      1.4383958400000001      1.4383958400000001      1.4383958400000001 0 0 0 0
     7   1                       0      2.8767916800000002      2.8767916800000002 0 0 0 0
     8   1      2.8767916800000002                       0      2.8767916800000002 0 0 0 0
     9   1      1.4383958400000001      1.4383958400000001      4.3151875200000003 0 0 0 0
    10   1                       0      2.8767916800000002      5.7535833600000004 0 0 0 0
    11   1      2.8767916800000002                       0      5.7535833600000004 0 0 0 0
    12   1      1.4383958400000001      1.4383958400000001      7.1919792000000005 0 0 0 0
    13   1                       0      5.7535833600000004                       0 0 0 0 0
    14   1      2.8767916800000002      2.8767916800000002                       0 0 0 0 0
    15   1      1.4383958400000001      4.3151875200000003      1.4383958400000001 0 0 0 0
    16   1                       0      5.7535833600000004      2.8767916800000002 0 0 0 0
    17   1      5.7535833600000004                       0                       0 0 0 0 0
    18   1      4.3151875200000003      1.4383958400000001      1.4383958400000001 0 0 0 0
    19   1      2.8767916800000002      2.8767916800000002      2.8767916800000002 0 0 0 0
    20   1      1.4383958400000001      4.3151875200000003      4.3151875200000003 0 0 0 0
    21   1                       0      5.7535833600000004      5.7535833600000004 0 0 0 0
    22   1      5.7535833600000004                       0      2.8767916800000002 0 0 0 0
    23   1      4.3151875200000003      1.4383958400000001      4.3151875200000003 0 0 0 0
    24   1      2.8767916800000002      2.8767916800000002      5.7535833600000004 0 0 0 0
    25   1      1.4383958400000001      4.3151875200000003      7.1919792000000005 0 0 0 0
    26   1      5.7535833600000004                       0      5.7535833600000004 0 0 0 0
    27   1      4.3151875200000003      1.4383958400000001      7.1919792000000005 0 0 0 0
    28   1      2.8767916800000002      5.7535833600000004                       0 0 0 0 0
    29   1      1.4383958400000001      7.1919792000000005      1.4383958400000001 0 0 0 0
    30   1      5.7535833600000004      2.8767916800000002                       0 0 0 0 0
    31   1      4.3151875200000003      4.3151875200000003      1.4383958400000001 0 0 0 0
    32   1      2.8767916800000002      5.7535833600000004      2.8767916800000002 0 0 0 0
    33   1      1.4383958400000001      7.1919792000000005      4.3151875200000003 0 0 0 0
    34   1      7.1919792000000005      1.4383958400000001      1.4383958400000001 0 0 0 0
    35   1      5.7535833600000004      2.8767916800000002      2.8767916800000002 0 0 0 0
    36   1      4.3151875200000003      4.3151875200000003      4.3151875200000003 0 0 0 0
    37   1      2.8767916800000002      5.7535833600000004      5.7535833600000004 0 0 0 0
    38   1      1.4383958400000001      7.1919792000000005      7.1919792000000005 0 0 0 0
    39   1      7.1919792000000005      1.4383958400000001      4.3151875200000003 0 0 0 0
    40   1      5.7535833600000004      2.8767916800000002      5.7535833600000004 0 0 0 0
    41   1      4.3151875200000003      4.3151875200000003      7.1919792000000005 0 0 0 0
    42   1      7.1919792000000005      1.4383958400000001      7.1919792000000005 0 0 0 0
    43   1      5.7535833600000004      5.7535833600000004                       0 0 0 0 0
    44   1      4.3151875200000003      7.1919792000000005      1.4383958400000001 0 0 0 0
    45   1      7.1919792000000005      4.3151875200000003      1.4383958400000001 0 0 0 0
    46   1      5.7535833600000004      5.7535833600000004      2.8767916800000002 0 0 0 0
    47   1      4.3151875200000003      7.1919792000000005      4.3151875200000003 0 0 0 0
    48   1      7.1919792000000005      4.3151875200000003      4.3151875200000003 0 0 0 0
    49   1      5.7535833600000004      5.7535833600000004      5.7535833600000004 0 0 0 0
    50   1      4.3151875200000003      7.1919792000000005      7.1919792000000005 0 0 0 0
    51   1      7.1919792000000005      4.3151875200000003      7.1919792000000005 0 0 0 0
    52   1      7.1919792000000005      7.1919792000000005      1.4383958400000001 0 0 0 0
    53   1      7.1919792000000005      7.1919792000000005      4.3151875200000003 0 0 0 0
    54   1      7.1919792000000005      7.1919792000000005      7.1919792000000005 0 0 0 0
