ITEM: TIMESTEP
4500
ITEM: NUMBER OF ATOMS
54
ITEM: BOX BOUNDS pp pp pp
0.0000000000000000e+00 8.6303750400000006e+00
0.0000000000000000e+00 8.6303750400000006e+00
0.0000000000000000e+00 8.6303750400000006e+00
ITEM: ATOMS c_outsp[1] c_outsp[2] c_outsp[3]
-0.0419479 -0.572811 -0.818613
-0.32546 0.781595 -0.53215
0.351764 0.503773 -0.788971
0.130858 0.962507 -0.237604
0.0989786 -0.913947 -0.393579
-0.634578 -0.770019 -0.0661867
0.70975 -0.437402 0.552208
0.281986 -0.571505 -0.770627
0.584713 -0.536239 -0.608735
-0.425216 0.848442 -0.31518
0.604051 0.100488 0.790585
0.217256 -0.28201 -0.934489
0.376636 0.88033 0.288381
0.361553 0.814774 -0.453236
0.726524 -0.590442 0.351483
0.553121 0.230239 0.800654
0.566322 -0.148135 -0.810762
0.317046 -0.377545 -0.870024
0.430467 -0.291383 0.85428
0.091879 0.892223 0.442149
-0.627351 -0.778734 -0.00200391
-0.953309 -0.165141 0.252844
0.710638 -0.336548 -0.617842
0.617328 -0.618562 -0.486093
-0.402699 -0.304915 -0.863053
-0.955284 -0.293366 -0.0370048
-0.326656 0.624129 0.70976
-0.37096 0.310764 -0.875108
-0.407397 0.182813 -0.894767
-0.473371 -0.263602 -0.840496
0.217408 0.800766 0.558129
-0.815025 -0.316447 0.485382
0.224346 0.719927 0.65679
0.522287 -0.842424 -0.132433
-0.500208 -0.640855 -0.58232
0.481113 -0.824148 0.29885
-0.143389 0.362245 -0.920988
-0.95294 -0.269682 0.138481
-0.0033589 -0.843376 -0.537313
0.937076 -0.0460849 -0.34607
-0.155513 0.985128 -0.073069
-0.350597 -0.379254 0.856299
0.0480661 -0.742758 -0.667833
0.927193 0.271644 0.257921
0.273173 -0.604246 -0.748507
-0.423506 0.640693 -0.640433
-0.28778 0.581205 -0.761173
0.315785 0.707642 0.632078
0.473389 0.447253 -0.75886
0.67342 0.685748 0.276142
-0.808293 0.163412 0.565648
-0.856992 -0.391636 0.334943
-0.491702 -0.656116 -0.572487
-0.690572 -0.668463 -0.276167
ITEM: TIMESTEP
4505
ITEM: NUMBER OF ATOMS
54
ITEM: BOX BOUNDS pp pp pp
0.0000000000000000e+00 8.6303750400000006e+00
0.0000000000000000e+00 8.6303750400000006e+00
0.0000000000000000e+00 8.6303750400000006e+00
ITEM: ATOMS c_outsp[1] c_outsp[2] c_outsp[3]
-0.0730063 -0.565582 -0.821454
-0.295914 0.802186 -0.518588
0.401637 0.523733 -0.75126
0.196916 0.953786 -0.226972
0.0558724 -0.906178 -0.41919
-0.642895 -0.7653 -0.031649
0.672887 -0.473419 0.568416
0.254396 -0.605161 -0.754363
0.537203 -0.570456 -0.621284
-0.410004 0.85145 -0.327
0.605474 0.069243 0.792847
0.243674 -0.259737 -0.93443
0.420152 0.853731 0.307598
0.401858 0.816677 -0.414183
0.708495 -0.623245 0.331059
0.585375 0.253807 0.770012
0.581514 -0.150574 -0.799481
0.313868 -0.395919 -0.86298
0.378819 -0.340987 0.860363
0.114682 0.883644 0.453895
-0.656698 -0.754022 0.0141174
-0.964983 -0.120666 0.232912
0.683088 -0.353882 -0.638872
0.602253 -0.620631 -0.502104
-0.403443 -0.289987 -0.867837
-0.969297 -0.241882 -0.0442421
-0.32927 0.649205 0.685649
-0.334682 0.327705 -0.883515
-0.416734 0.182244 -0.890573
-0.475876 -0.223442 -0.850656
0.262808 0.806988 0.528869
-0.835857 -0.289077 0.466667
0.247057 0.735357 0.631041
0.487507 -0.866241 -0.109378
-0.517184 -0.639892 -0.568382
0.43706 -0.855013 0.279162
-0.150488 0.343274 -0.927101
-0.957335 -0.256715 0.132695
0.017116 -0.845112 -0.534315
0.946361 -0.0513508 -0.319003
-0.146144 0.985798 -0.0827319
-0.393412 -0.344699 0.852297
0.0119549 -0.725842 -0.687758
0.936772 0.229325 0.264326
0.269702 -0.613085 -0.742555
-0.438712 0.652621 -0.617752
-0.261455 0.569817 -0.77907
0.338052 0.71108 0.616511
0.516987 0.413122 -0.749703
0.696957 0.654396 0.293286
-0.786286 0.162144 0.596208
-0.874518 -0.359698 0.325323
-0.490753 -0.64353 -0.587392
-0.701532 -0.66006 -0.26865
ITEM: TIMESTEP
4510
ITEM: NUMBER OF ATOMS
54
ITEM: BOX BOUNDS pp pp pp
0.0000000000000000e+00 8.6303750400000006e+00
0.0000000000000000e+00 8.6303750400000006e+00
0.0000000000000000e+00 8.6303750400000006e+00
ITEM: ATOMS c_outsp[1] c_outsp[2] c_outsp[3]
-0.102674 -0.556663 -0.824369
-0.266534 0.820822 -0.505183
0.452211 0.537927 -0.711435
0.262044 0.940553 -0.216087
0.0136596 -0.895778 -0.444292
-0.651369 -0.758752 0.00383267
0.634602 -0.507783 0.582612
0.22318 -0.636626 -0.738172
0.487389 -0.601638 -0.632837
-0.393972 0.854515 -0.338512
0.605357 0.0382093 0.795036
0.271095 -0.239933 -0.932169
0.461122 0.824651 0.327594
0.442453 0.814556 -0.375145
0.689658 -0.654149 0.310582
0.61809 0.275199 0.736363
0.59699 -0.153458 -0.787435
0.309167 -0.413691 -0.856315
0.323441 -0.388505 0.862815
0.138709 0.873916 0.465865
-0.685226 -0.727728 0.0296304
-0.974294 -0.0770008 0.211713
0.655069 -0.367639 -0.660096
0.58701 -0.621871 -0.518358
-0.4039 -0.274788 -0.872557
-0.980749 -0.188701 -0.0502345
-0.329674 0.674327 0.660756
-0.296847 0.341899 -0.89162
-0.425835 0.182574 -0.886189
-0.475084 -0.18398 -0.860492
0.307478 0.810789 0.498075
-0.855222 -0.261515 0.447444
0.270657 0.749269 0.604434
0.45151 -0.888037 -0.0867757
-0.533289 -0.638927 -0.554414
0.392234 -0.8825 0.25951
-0.158983 0.325068 -0.932231
-0.961591 -0.243092 0.127474
0.0383461 -0.847717 -0.529062
0.954906 -0.0574516 -0.291297
-0.136915 0.986351 -0.0914682
-0.434164 -0.309181 0.846114
-0.0244203 -0.706469 -0.707323
0.944266 0.187329 0.270683
0.265726 -0.621819 -0.736702
-0.4526 0.66476 -0.594346
-0.233682 0.556847 -0.797066
0.359387 0.713851 0.601048
0.55838 0.377665 -0.738634
0.718312 0.622432 0.310816
-0.763024 0.160016 0.626251
-0.891144 -0.326345 0.315215
-0.488073 -0.631558 -0.602428
-0.713164 -0.650282 -0.261783
ITEM: TIMESTEP
4515
ITEM: NUMBER OF ATOMS
54
ITEM: BOX BOUNDS pp pp pp
0.0000000000000000e+00 8.6303750400000006e+00
0.0000000000000000e+00 8.6303750400000006e+00
0.0000000000000000e+00 8.6303750400000006e+00
ITEM: ATOMS c_outsp[1] c_outsp[2] c_outsp[3]
-0.130386 -0.546173 -0.827463
-0.237919 0.837499 -0.491924
0.502999 0.546313 -0.669727
0.325948 0.922882 -0.205055
-0.0274892 -0.882848 -0.468853
-0.659934 -0.750248 0.0401779
0.595074 -0.540432 0.594828
0.188924 -0.665382 -0.722201
0.435324 -0.629991 -0.643121
-0.377571 0.857449 -0.349602
0.603971 0.00781188 0.796968
0.299318 -0.222704 -0.927799
0.499353 0.793298 0.348317
0.483112 0.808219 -0.336726
0.670132 -0.682994 0.29059
0.651045 0.294235 0.69969
0.612698 -0.156825 -0.774601
0.302983 -0.430873 -0.850029
0.264567 -0.43361 0.861386
0.16395 0.862939 0.477971
-0.712879 -0.699874 0.044495
-0.98131 -0.0342772 0.189358
0.626838 -0.377428 -0.681632
0.571861 -0.621894 -0.534998
-0.404266 -0.259686 -0.877002
-0.989434 -0.134296 -0.0546348
-0.327823 0.699386 0.63513
-0.25768 0.35325 -0.899342
-0.434648 0.183766 -0.881652
-0.471077 -0.145494 -0.87001
0.351412 0.811931 0.46613
-0.873348 -0.233597 0.42743
0.295109 0.76157 0.576994
0.414431 -0.907778 -0.0646969
-0.548512 -0.638033 -0.540414
0.346973 -0.906655 0.239972
-0.168396 0.307855 -0.936412
-0.965667 -0.228847 0.122947
0.0601571 -0.851187 -0.521403
0.962609 -0.0642437 -0.263168
-0.128268 0.986769 -0.0991721
-0.472832 -0.272942 0.837814
-0.0609159 -0.684587 -0.726381
0.949744 0.145751 0.277024
0.261249 -0.630422 -0.73097
-0.465186 0.677038 -0.570282
-0.204033 0.542142 -0.81514
0.379334 0.716097 0.585928
0.597448 0.341045 -0.725772
0.737457 0.590023 0.328678
-0.738387 0.15661 0.65594
-0.906556 -0.291922 0.304856
-0.483902 -0.619891 -0.617716
-0.725575 -0.638795 -0.255894
ITEM: TIMESTEP
4520
ITEM: NUMBER OF ATOMS
54
ITEM: BOX BOUNDS pp pp pp
0.0000000000000000e+00 8.6303750400000006e+00
0.0000000000000000e+00 8.6303750400000006e+00
0.0000000000000000e+00 8.6303750400000006e+00
ITEM: ATOMS c_outsp[1] c_outsp[2] c_outsp[3]
-0.154752 -0.534207 -0.831069
-0.211512 0.852161 -0.478628
0.553526 0.548898 -0.626355
0.388338 0.900869 -0.193983
-0.0674308 -0.86749 -0.492863
-0.668505 -0.739683 0.0772707
0.554484 -0.571306 0.605109
0.152998 -0.690737 -0.706735
0.380566 -0.656312 -0.651478
-0.362 0.859827 -0.360074
0.602105 -0.0209336 0.798143
0.328163 -0.208142 -0.921404
0.534654 0.759919 0.369687
0.523603 0.797269 -0.300337
0.650026 -0.709414 0.272394
0.683971 0.310793 0.659993
0.628553 -0.160734 -0.760976
0.295353 -0.447504 -0.844101
0.20249 -0.475987 0.855824
0.190365 0.850606 0.490133
-0.739594 -0.67049 0.058684
-0.986103 0.0073841 0.16597
0.598672 -0.382216 -0.703919
0.557476 -0.619687 -0.552458
-0.405123 -0.245662 -0.880639
-0.995191 -0.0798182 -0.0567743
-0.323722 0.724268 0.608802
-0.217433 0.361731 -0.906572
-0.443104 0.185771 -0.877011
-0.463971 -0.108216 -0.879216
0.394956 0.809727 0.433997
-0.890769 -0.204691 0.405749
0.320357 0.772146 0.548783
0.376377 -0.925457 -0.0432294
-0.562834 -0.637316 -0.526352
0.301586 -0.927569 0.220592
-0.177447 0.291947 -0.939829
-0.96948 -0.214086 0.11948
0.082347 -0.85552 -0.511179
0.96934 -0.0715049 -0.23509
-0.121419 0.986963 -0.105649
-0.509397 -0.236201 0.82748
-0.0973779 -0.660146 -0.744798
0.953279 0.104673 0.283377
0.256312 -0.638855 -0.725374
-0.476503 0.689361 -0.545643
-0.171297 0.525354 -0.833463
0.396652 0.718184 0.571733
0.634093 0.303428 -0.711237
0.754387 0.55734 0.346804
-0.711894 0.150886 0.685886
-0.920201 -0.257432 0.294889
-0.478747 -0.607569 -0.633767
-0.739197 -0.62467 -0.251744
ITEM: TIMESTEP
4525
ITEM: NUMBER OF ATOMS
54
ITEM: BOX BOUNDS pp pp pp
0.0000000000000000e+00 8.6303750400000006e+00
0.0000000000000000e+00 8.6303750400000006e+00
0.0000000000000000e+00 8.6303750400000006e+00
ITEM: ATOMS c_outsp[1] c_outsp[2] c_outsp[3]
-0.177611 -0.521253 -0.834715
-0.185536 0.865173 -0.465888
0.603316 0.545733 -0.581537
0.448939 0.874626 -0.182985
-0.106024 -0.849816 -0.516305
-0.676989 -0.726952 0.115004
0.513005 -0.60037 0.6135
0.11397 -0.713098 -0.691739
0.324372 -0.679016 -0.658574
-0.345627 0.862336 -0.370025
0.598866 -0.049451 0.799321
0.357424 -0.196304 -0.913079
0.566868 0.724762 0.391637
0.563689 0.782506 -0.264462
0.629439 -0.734227 0.254397
0.716587 0.324745 0.617287
0.644484 -0.165227 -0.746552
0.286311 -0.463607 -0.838508
0.137555 -0.515319 0.845887
0.217914 0.836815 0.50225
-0.765305 -0.63961 0.0721649
-0.988757 0.0478687 0.141666
0.571061 -0.38337 -0.72589
0.543146 -0.616636 -0.56987
-0.405691 -0.231316 -0.884256
-0.998056 -0.024068 -0.057488
-0.317371 0.748845 0.581814
-0.176356 0.367312 -0.913225
-0.451152 0.188538 -0.872305
-0.453891 -0.0723801 -0.888113
0.436972 0.805368 0.400548
-0.906553 -0.17602 0.383639
0.34634 0.780898 0.519853
0.337472 -0.941068 -0.0224537
-0.576246 -0.63686 -0.512201
0.256372 -0.945356 0.201432
-0.18781 0.277303 -0.942248
-0.973157 -0.19848 0.116496
0.104705 -0.860682 -0.49826
0.975199 -0.07944 -0.206583
-0.114617 0.987175 -0.11112
-0.543862 -0.199171 0.815196
-0.133639 -0.633116 -0.762433
0.954944 0.0641624 0.289766
0.25094 -0.647089 -0.719934
-0.486584 0.701649 -0.520504
-0.137294 0.506775 -0.851075
0.41311 0.719824 0.557847
0.668234 0.264989 -0.695158
0.769112 0.524543 0.365131
-0.68437 0.144012 0.714771
-0.932712 -0.221532 0.284555
-0.471913 -0.595989 -0.649688
-0.753199 -0.609186 -0.24816
ITEM: TIMESTEP
4530
ITEM: NUMBER OF ATOMS
54
ITEM: BOX BOUNDS pp pp pp
0.0000000000000000e+00 8.6303750400000006e+00
0.0000000000000000e+00 8.6303750400000006e+00
0.0000000000000000e+00 8.6303750400000006e+00
ITEM: ATOMS c_outsp[1] c_outsp[2] c_outsp[3]
-0.198937 -0.507475 -0.838387
-0.160091 0.876602 -0.453807
0.651905 0.536914 -0.535484
0.507484 0.844283 -0.172178
-0.143133 -0.829952 -0.539159
-0.685287 -0.71196 0.153278
0.470804 -0.627605 0.620045
0.0721159 -0.732161 -0.677303
0.267079 -0.698068 -0.664357
-0.328491 0.864953 -0.379407
0.59428 -0.0776704 0.800499
0.386879 -0.187208 -0.902927
0.595874 0.688075 0.414109
0.603148 0.763971 -0.229263
0.608444 -0.757476 0.236699
0.748594 0.335962 0.571609
0.660428 -0.170327 -0.731316
0.275895 -0.479189 -0.833223
0.0701563 -0.551295 0.831356
0.246548 0.82147 0.5142
-0.789941 -0.607276 0.0849022
-0.98936 0.0870685 0.116556
0.544294 -0.380924 -0.747423
0.528934 -0.612724 -0.587194
-0.405979 -0.216672 -0.887825
-0.997855 0.0327664 -0.0566636
-0.308767 0.772984 0.554219
-0.134701 0.369953 -0.919234
-0.458753 0.192023 -0.867567
-0.440975 -0.0382225 -0.896705
0.477281 0.798959 0.365878
-0.920743 -0.147688 0.361138
0.372994 0.787744 0.490241
0.297856 -0.954608 -0.00244363
-0.588751 -0.636732 -0.497941
0.211614 -0.960151 0.182566
-0.19938 0.264084 -0.943667
-0.97667 -0.182007 0.113971
0.127012 -0.866613 -0.482546
0.980143 -0.0879434 -0.177721
-0.107874 0.987425 -0.115563
-0.576245 -0.162053 0.80105
-0.169522 -0.603488 -0.779143
0.954813 0.0242724 0.296213
0.245141 -0.6551 -0.714668
-0.495463 0.713834 -0.494931
-0.102099 0.486367 -0.867769
0.4287 0.721046 0.544343
0.69981 0.22591 -0.677665
0.781663 0.491785 0.383601
-0.655945 0.135865 0.74248
-0.943937 -0.18427 0.273911
-0.463482 -0.585176 -0.665397
-0.767488 -0.592334 -0.245157
ITEM: TIMESTEP
4535
ITEM: NUMBER OF ATOMS
54
ITEM: BOX BOUNDS pp pp pp
0.0000000000000000e+00 8.6303750400000006e+00
0.0000000000000000e+00 8.6303750400000006e+00
0.0000000000000000e+00 8.6303750400000006e+00
ITEM: ATOMS c_outsp[1] c_outsp[2] c_outsp[3]
-0.218725 -0.49303 -0.842069
-0.135263 0.886516 -0.442485
0.69884 0.522579 -0.488399
0.563719 0.809988 -0.161678
-0.178629 -0.808029 -0.56141
-0.693284 -0.694621 0.191988
0.428046 -0.653007 0.624787
0.027742 -0.747648 -0.663515
0.209024 -0.713461 -0.668791
-0.310632 0.867654 -0.388181
0.588379 -0.105523 0.80167
0.416308 -0.180843 -0.891057
0.621573 0.650108 0.437044
0.64176 0.741727 -0.194898
0.5871 -0.779218 0.21939
0.779664 0.344347 0.523019
0.67632 -0.176058 -0.715258
0.264145 -0.494256 -0.828214
0.000748113 -0.583616 0.81203
0.276207 0.804478 0.525857
-0.813434 -0.573536 0.096864
-0.988012 0.124883 0.0907518
0.518658 -0.374939 -0.768385
0.514901 -0.607938 -0.604391
-0.406005 -0.201748 -0.891323
-0.994423 0.0904701 -0.054197
-0.297929 0.796546 0.526072
-0.0927253 0.369637 -0.924538
-0.465872 0.19618 -0.862831
-0.425375 -0.00596298 -0.904998
0.515719 0.79062 0.330082
-0.933388 -0.119792 0.338284
0.400244 0.7926 0.459989
0.257669 -0.966089 0.0167265
-0.600354 -0.636994 -0.483543
0.167571 -0.972112 0.164065
-0.212039 0.252445 -0.944093
-0.979986 -0.164649 0.111881
0.149038 -0.873228 -0.463963
0.984142 -0.0969043 -0.14857
-0.101198 0.987728 -0.118966
-0.606575 -0.125035 0.785132
-0.204839 -0.57127 -0.79479
0.952958 -0.0149559 0.302734
0.238927 -0.662868 -0.709592
-0.503177 0.725853 -0.468989
-0.0658119 0.464102 -0.883334
0.443425 0.721875 0.531292
0.728782 0.186381 -0.658892
0.792085 0.459211 0.402153
-0.626765 0.126325 0.7689
-0.953724 -0.145713 0.263018
-0.453538 -0.575147 -0.680815
-0.781967 -0.574113 -0.24274
ITEM: TIMESTEP
4540
ITEM: NUMBER OF ATOMS
54
ITEM: BOX BOUNDS pp pp pp
0.0000000000000000e+00 8.6303750400000006e+00
0.0000000000000000e+00 8.6303750400000006e+00
0.0000000000000000e+00 8.6303750400000006e+00
ITEM: ATOMS c_outsp[1] c_outsp[2] c_outsp[3]
-0.236601 -0.478446 -0.845641
-0.110364 0.895029 -0.432137
0.743981 0.502603 -0.440321
0.618301 0.771283 -0.151085
-0.212359 -0.784094 -0.583182
-0.700396 -0.675479 0.230595
0.385157 -0.676287 0.627925
-0.0195179 -0.759211 -0.650552
0.149899 -0.725234 -0.671987
-0.292533 0.870456 -0.395891
0.580611 -0.132686 0.803296
0.445324 -0.176583 -0.877784
0.644094 0.61148 0.459603
0.67909 0.716008 -0.16177
0.564861 -0.800056 0.202094
0.809505 0.348706 0.472341
0.692376 -0.182202 -0.698154
0.250831 -0.509158 -0.823312
-0.0705766 -0.610996 0.788481
0.307108 0.785816 0.536821
-0.835298 -0.539276 0.107047
-0.984683 0.161996 0.064477
0.494226 -0.365607 -0.788716
0.500933 -0.601761 -0.622053
-0.405354 -0.186265 -0.894982
-0.987693 0.148217 -0.0499513
-0.2839 0.819713 0.497465
-0.05133 0.367091 -0.928768
-0.472496 0.200996 -0.858107
-0.407021 0.024101 -0.913101
0.551635 0.780796 0.293355
-0.944813 -0.0919367 0.314447
0.428248 0.795689 0.428349
0.216926 -0.975531 0.0358071
-0.611211 -0.63787 -0.468554
0.123897 -0.981568 0.145513
-0.225256 0.242587 -0.943616
-0.983061 -0.14616 0.110583
0.170354 -0.880467 -0.442444
0.987159 -0.106383 -0.119162
-0.0948208 0.988099 -0.121114
-0.634394 -0.0889589 0.767874
-0.23949 -0.536697 -0.809074
0.94936 -0.0540116 0.309513
0.232026 -0.67071 -0.704494
-0.509689 0.737892 -0.442416
-0.028007 0.44038 -0.897375
0.456958 0.722556 0.518751
0.75515 0.146935 -0.638872
0.800764 0.426449 0.420616
-0.597374 0.115717 0.79357
-0.961796 -0.106458 0.252222
-0.442595 -0.565726 -0.695747
-0.796125 -0.554829 -0.241557
ITEM: TIMESTEP
4545
ITEM: NUMBER OF ATOMS
54
ITEM: BOX BOUNDS pp pp pp
0.0000000000000000e+00 8.6303750400000006e+00
0.0000000000000000e+00 8.6303750400000006e+00
0.0000000000000000e+00 8.6303750400000006e+00
ITEM: ATOMS c_outsp[1] c_outsp[2] c_outsp[3]
-0.251478 -0.465123 -0.848776
-0.0830228 0.902279 -0.423085
0.787717 0.476015 -0.391039
0.673553 0.725982 -0.138841
-0.244046 -0.758005 -0.604872
-0.705084 -0.656691 0.267606
0.343197 -0.696546 0.630111
-0.0713438 -0.766025 -0.63884
0.0880203 -0.73313 -0.674368
-0.275683 0.87346 -0.401332
0.569344 -0.158152 0.806743
0.473179 -0.172579 -0.863897
0.66418 0.573646 0.479369
0.714351 0.687463 -0.130752
0.539832 -0.821586 0.183241
0.837995 0.345613 0.422274
0.709308 -0.188146 -0.679326
0.235169 -0.524855 -0.81806
-0.144314 -0.630126 0.762964
0.33994 0.765642 0.546107
-0.854471 -0.50719 0.112416
-0.978915 0.200664 0.038195
0.470651 -0.353282 -0.808504
0.486646 -0.59246 -0.642002
-0.402725 -0.169424 -0.899504
-0.977997 0.203969 -0.0437933
-0.263586 0.843188 0.468569
-0.012616 0.364732 -0.931027
-0.478627 0.206551 -0.853377
-0.385278 0.0513705 -0.92137
0.5835 0.770656 0.256157
-0.95573 -0.0628183 0.287461
0.457734 0.797564 0.392901
0.175377 -0.982834 0.0572784
-0.621806 -0.639865 -0.451586
0.0789886 -0.988952 0.125441
-0.237697 0.234777 -0.942539
-0.985803 -0.125729 0.111288
0.190052 -0.888325 -0.418043
0.989139 -0.116599 -0.0894941
-0.0895357 0.988548 -0.121476
-0.658386 -0.0560707 0.750589
-0.273655 -0.500416 -0.821399
0.943694 -0.0945236 0.317027
0.223618 -0.679594 -0.698676
-0.514762 0.750607 -0.414257
0.0128422 0.416522 -0.909035
0.468268 0.723841 0.506734
0.779048 0.108743 -0.617461
0.808719 0.391964 0.438562
-0.569165 0.105366 0.815444
-0.967739 -0.0682253 0.242542
-0.432005 -0.556362 -0.709811
-0.808572 -0.535579 -0.243652
ITEM: TIMESTEP
4550
ITEM: NUMBER OF ATOMS
54
ITEM: BOX BOUNDS pp pp pp
0.0000000000000000e+00 8.6303750400000006e+00
0.0000000000000000e+00 8.6303750400000006e+00
0.0000000000000000e+00 8.6303750400000006e+00
ITEM: ATOMS c_outsp[1] c_outsp[2] c_outsp[3]
-0.264988 -0.451757 -0.851879
-0.0562247 0.908144 -0.414865
0.828389 0.444061 -0.34144
0.725462 0.676438 -0.127028
-0.273711 -0.730259 -0.625943
-0.709062 -0.635981 0.304563
0.301302 -0.714974 0.630896
-0.12446 -0.768105 -0.628112
0.026203 -0.736953 -0.675436
-0.258389 0.876473 -0.40624
0.557063 -0.18278 0.810107
0.500338 -0.171108 -0.848754
0.681102 0.535467 0.499376
0.748248 0.655696 -0.10093
0.514322 -0.841662 0.164553
0.864623 0.339594 0.370274
0.72584 -0.194882 -0.65968
0.218291 -0.539901 -0.812931
-0.218057 -0.644857 0.732537
0.373326 0.743665 0.554608
-0.872708 -0.474067 0.116797
-0.971272 0.237691 0.0115734
0.44906 -0.337614 -0.827262
0.472852 -0.581942 -0.66163
-0.399853 -0.152452 -0.903812
-0.965003 0.259772 -0.0358829
-0.240933 0.865427 0.439303
0.0257566 0.359879 -0.932644
-0.484141 0.212674 -0.848751
-0.36124 0.075958 -0.929374
0.613289 0.759111 0.218237
-0.965 -0.0345223 0.259967
0.48767 0.796779 0.356821
0.133648 -0.987969 0.0778225
-0.631576 -0.642322 -0.434204
0.0353274 -0.993761 0.105792
-0.250801 0.228878 -0.940592
-0.988181 -0.104179 0.112453
0.208614 -0.896471 -0.390921
0.990151 -0.1266 -0.0597852
-0.0845498 0.989044 -0.121013
-0.680675 -0.0238677 0.732197
-0.306839 -0.461623 -0.832319
0.93626 -0.134453 0.324561
0.214896 -0.68812 -0.693044
-0.51872 0.762909 -0.385875
0.0543928 0.390915 -0.918818
0.478661 0.724915 0.49536
0.800467 0.070592 -0.595205
0.814701 0.357787 0.456345
-0.540856 0.0934793 0.835905
-0.972031 -0.0291047 0.233042
-0.420147 -0.547821 -0.723442
-0.820814 -0.515291 -0.246453
ITEM: TIMESTEP
4555
ITEM: NUMBER OF ATOMS
54
ITEM: BOX BOUNDS pp pp pp
0.0000000000000000e+00 8.6303750400000006e+00
0.0000000000000000e+00 8.6303750400000006e+00
0.0000000000000000e+00 8.6303750400000006e+00
ITEM: ATOMS c_outsp[1] c_outsp[2] c_outsp[3]
-0.277203 -0.438454 -0.854937
-0.0300045 0.912691 -0.407548
0.865573 0.407028 -0.29174
0.77371 0.622876 -0.115752
-0.301264 -0.701 -0.646404
-0.712232 -0.613353 0.341355
0.259598 -0.73162 0.63035
-0.178398 -0.76532 -0.618433
-0.035213 -0.736789 -0.675205
-0.240678 0.879474 -0.410609
0.543851 -0.206527 0.813371
0.526624 -0.172087 -0.832498
0.69488 0.497182 0.519569
0.780582 0.620843 -0.0724204
0.488363 -0.860326 0.146081
0.889059 0.330755 0.316505
0.741882 -0.202408 -0.639251
0.200261 -0.554278 -0.807881
-0.291174 -0.655092 0.697188
0.407128 0.71984 0.562207
-0.889959 -0.439922 0.120171
-0.961892 0.273002 -0.0152844
0.429733 -0.318784 -0.844812
0.459628 -0.570225 -0.680871
-0.396766 -0.135345 -0.907887
-0.948616 0.315343 -0.0261769
-0.216052 0.886262 0.409708
0.0635536 0.352593 -0.933616
-0.489008 0.219314 -0.844258
-0.335123 0.097693 -0.937096
0.640918 0.746281 0.17969
-0.972683 -0.00715126 0.232029
0.5179 0.79326 0.320184
0.0918895 -0.990997 0.0973688
-0.640533 -0.645262 -0.416358
-0.00692489 -0.996217 0.0866289
-0.264394 0.22501 -0.937799
-0.99013 -0.0814904 0.114024
0.225822 -0.904756 -0.361139
0.990217 -0.136254 -0.030099
-0.0798828 0.989583 -0.119771
-0.701327 0.00755964 0.712799
-0.338824 -0.420376 -0.841714
0.927096 -0.173779 0.332104
0.205898 -0.696268 -0.687617
-0.52162 0.77474 -0.357337
0.096457 0.363578 -0.926556
0.488155 0.725795 0.484692
0.819438 0.0326484 -0.572237
0.818791 0.324013 0.473916
-0.512636 0.0799831 0.854873
-0.97457 0.0107889 0.223825
-0.407108 -0.540111 -0.736575
-0.832768 -0.493994 -0.249936
ITEM: TIMESTEP
4560
ITEM: NUMBER OF ATOMS
54
ITEM: BOX BOUNDS pp pp pp
0.0000000000000000e+00 8.6303750400000006e+00
0.0000000000000000e+00 8.6303750400000006e+00
0.0000000000000000e+00 8.6303750400000006e+00
ITEM: ATOMS c_outsp[1] c_outsp[2] c_outsp[3]
-0.288207 -0.425304 -0.857936
-0.00438375 0.915983 -0.401194
0.898871 0.365234 -0.242146
0.817988 0.56555 -0.105112
-0.326626 -0.670375 -0.666267
-0.714494 -0.588819 0.377875
0.218202 -0.746542 0.62854
-0.232677 -0.757584 -0.609859
-0.0959062 -0.732752 -0.673704
-0.222571 0.882441 -0.41444
0.529797 -0.229355 0.816524
0.551874 -0.175417 -0.815269
0.705557 0.45902 0.539898
0.811163 0.583061 -0.0453318
0.461979 -0.877625 0.127866
0.910981 0.319241 0.261148
0.757348 -0.210717 -0.61808
0.181145 -0.56797 -0.802868
-0.363009 -0.660783 0.656955
0.441198 0.694135 0.568789
-0.90617 -0.404776 0.122524
-0.950921 0.306531 -0.0422784
0.412932 -0.297008 -0.860972
0.447053 -0.557333 -0.699659
-0.393494 -0.118092 -0.911711
-0.928765 0.370379 -0.0146456
-0.189074 0.905531 0.379822
0.100547 0.342958 -0.933954
-0.493204 0.226418 -0.839931
-0.307152 0.116426 -0.944512
0.666319 0.732291 0.140605
-0.978842 0.0192012 0.203717
0.548258 0.786946 0.283071
0.0502441 -0.991995 0.11585
-0.648685 -0.648695 -0.397998
-0.0476376 -0.996547 0.068006
-0.278286 0.223279 -0.934186
-0.991581 -0.0576541 0.115943
0.24147 -0.913014 -0.328782
0.989368 -0.145432 -0.000497125
-0.0755552 0.990159 -0.117803
-0.72041 0.0381341 0.692499
-0.36939 -0.376758 -0.849473
0.916239 -0.212486 0.339641
0.19666 -0.704016 -0.682412
-0.523522 0.786048 -0.328715
0.13883 0.33455 -0.932096
0.496774 0.726493 0.474787
0.836012 -0.00492186 -0.548689
0.82108 0.290724 0.49123
-0.484705 0.0648204 0.872272
-0.975265 0.0513272 0.214998
-0.39298 -0.533236 -0.74915
-0.844352 -0.471719 -0.254069
ITEM: TIMESTEP
4565
ITEM: NUMBER OF ATOMS
54
ITEM: BOX BOUNDS pp pp pp
0.0000000000000000e+00 8.6303750400000006e+00
0.0000000000000000e+00 8.6303750400000006e+00
0.0000000000000000e+00 8.6303750400000006e+00
ITEM: ATOMS c_outsp[1] c_outsp[2] c_outsp[3]
-0.298094 -0.412382 -0.860861
0.0206285 0.918079 -0.39586
0.927915 0.319029 -0.19286
0.858005 0.504742 -0.0951995
-0.349727 -0.638528 -0.685545
-0.715747 -0.562404 0.414014
0.177219 -0.759801 0.625536
-0.286806 -0.744858 -0.602436
-0.155577 -0.724977 -0.670972
-0.204093 0.885349 -0.417735
0.514991 -0.251234 0.819552
0.57594 -0.180986 -0.797206
0.713192 0.421199 0.560311
0.839806 0.542526 -0.0197637
0.435183 -0.893605 0.109936
0.930082 0.305234 0.204401
0.772153 -0.219794 -0.596213
0.161017 -0.580957 -0.797848
-0.432891 -0.66193 0.611927
0.475377 0.666529 0.574245
-0.921281 -0.368652 0.123841
-0.938508 0.338227 -0.0693121
0.398899 -0.272537 -0.875559
0.435202 -0.5433 -0.71793
-0.39006 -0.100676 -0.915269
-0.9054 0.424558 -0.00127285
-0.160155 0.923079 0.349679
0.136516 0.331077 -0.933676
-0.496705 0.233935 -0.835798
-0.277565 0.132028 -0.951592
0.689434 0.717262 0.101071
-0.983546 0.0444509 0.175106
0.578569 0.77779 0.245563
0.00885108 -0.99105 0.1332
-0.656039 -0.652623 -0.379071
-0.0867101 -0.994979 0.0499741
-0.292274 0.223773 -0.929786
-0.992458 -0.0326661 0.118149
0.255367 -0.92107 -0.293967
0.987645 -0.154011 0.0289607
-0.0715881 0.990762 -0.115175
-0.73799 0.0677914 0.671398
-0.398314 -0.330872 -0.855494
0.903718 -0.25056 0.34715
0.187225 -0.711351 -0.677442
-0.524489 0.796783 -0.300079
0.181294 0.303883 -0.935301
0.504545 0.727022 0.465697
0.85026 -0.0419561 -0.524688
0.821663 0.257985 0.508246
-0.457273 0.0479524 0.888033
-0.974041 0.0923694 0.20667
-0.377855 -0.527196 -0.761111
-0.855486 -0.448507 -0.258814
ITEM: TIMESTEP
4570
ITEM: NUMBER OF ATOMS
54
ITEM: BOX BOUNDS pp pp pp
0.0000000000000000e+00 8.6303750400000006e+00
0.0000000000000000e+00 8.6303750400000006e+00
0.0000000000000000e+00 8.6303750400000006e+00
ITEM: ATOMS c_outsp[1] c_outsp[2] c_outsp[3]
-0.306964 -0.399752 -0.863696
0.0450352 0.919034 -0.391597
0.952361 0.268792 -0.14408
0.893486 0.440761 -0.0861
-0.370504 -0.605603 -0.704253
-0.715888 -0.534142 0.449663
0.136744 -0.771464 0.621406
-0.340294 -0.727148 -0.596201
-0.213949 -0.713621 -0.667062
-0.185265 0.888174 -0.420504
0.499526 -0.272144 0.822442
0.598691 -0.188672 -0.778442
0.717861 0.383922 0.580757
0.866343 0.499432 0.00419388
0.407981 -0.908311 0.0923125
0.946072 0.288951 0.146477
0.786215 -0.229621 -0.573707
0.139951 -0.593223 -0.79278
-0.500144 -0.658585 0.562247
0.509492 0.637017 0.57847
-0.935229 -0.331576 0.124114
-0.924806 0.36805 -0.0962933
0.387855 -0.245651 -0.888383
0.424149 -0.528167 -0.73562
-0.386488 -0.0830699 -0.918546
-0.878497 0.477544 0.0139422
-0.129469 0.938766 0.319305
0.171251 0.317071 -0.932813
-0.499492 0.241813 -0.831886
-0.246602 0.144393 -0.9583
0.71022 0.701317 0.0611751
-0.986868 0.0685236 0.146273
0.608649 0.76576 0.207746
-0.0321567 -0.98826 0.149361
-0.662602 -0.657039 -0.359525
-0.124071 -0.991738 0.032578
-0.306139 0.226562 -0.924635
-0.992683 -0.00653053 0.120575
0.267346 -0.928741 -0.256837
0.985092 -0.161876 0.0582167
-0.0680038 0.991383 -0.111962
-0.754132 0.0964788 0.649597
-0.425373 -0.282848 -0.859683
0.88956 -0.287988 0.354606
0.177635 -0.718258 -0.672719
-0.524586 0.806906 -0.271501
0.223619 0.271646 -0.936057
0.511496 0.727389 0.457468
0.862269 -0.0782959 -0.500361
0.820635 0.225851 0.524928
-0.430549 0.02936 0.902089
-0.970837 0.133764 0.198954
-0.361825 -0.521985 -0.772408
-0.866095 -0.424403 -0.264124
ITEM: TIMESTEP
4575
ITEM: NUMBER OF ATOMS
54
ITEM: BOX BOUNDS pp pp pp
0.0000000000000000e+00 8.6303750400000006e+00
0.0000000000000000e+00 8.6303750400000006e+00
0.0000000000000000e+00 8.6303750400000006e+00
ITEM: ATOMS c_outsp[1] c_outsp[2] c_outsp[3]
-0.314646 -0.387383 -0.866564
0.0688703 0.918849 -0.388553
0.9719 0.214928 -0.0959996
0.924175 0.373944 -0.0778882
-0.388901 -0.57174 -0.722405
-0.714811 -0.504077 0.484718
0.0968621 -0.781598 0.616216
-0.392675 -0.704458 -0.591224
-0.270745 -0.698903 -0.661991
-0.166129 0.890933 -0.422657
0.483215 -0.292147 0.82532
0.620011 -0.198343 -0.759109
0.719654 0.347379 0.601187
0.890817 0.453594 0.0264033
0.380403 -0.921751 0.0752868
0.958685 0.270644 0.087605
0.799457 -0.240174 -0.550622
0.118026 -0.60475 -0.787621
-0.5641 -0.650853 0.508116
0.543364 0.605611 0.58137
-0.947945 -0.293577 0.123337
-0.909969 0.395972 -0.123133
0.380136 -0.21662 -0.899207
0.413819 -0.512027 -0.752717
-0.382998 -0.0648479 -0.92147
-0.848095 0.528954 0.0307009
-0.0972059 0.952465 0.288723
0.204556 0.301079 -0.931401
-0.50155 0.25 -0.828219
-0.214512 0.153436 -0.964594
0.728614 0.684591 0.0213897
-0.988824 0.091413 0.117776
0.638305 0.750843 0.16971
-0.0726527 -0.983735 0.164277
-0.668377 -0.661923 -0.339308
-0.159676 -0.987042 0.015857
-0.319674 0.231231 -0.91888
-0.992148 0.0212043 0.123262
0.277261 -0.935838 -0.217562
0.981795 -0.168937 0.0868261
-0.0648866 0.991952 -0.108721
-0.768903 0.124155 0.627196
-0.450348 -0.232838 -0.861959
0.873789 -0.324756 0.361977
0.167938 -0.72473 -0.668254
-0.52388 0.816379 -0.243054
0.265784 0.237492 -0.934321
0.517823 0.727481 0.450144
0.872147 -0.11379 -0.475827
0.818096 0.194363 0.541241
-0.404676 0.00943837 0.914411
-0.965687 0.174958 0.191935
-0.345149 -0.517474 -0.783003
-0.876319 -0.399025 -0.269896
ITEM: TIMESTEP
4580
ITEM: NUMBER OF ATOMS
54
ITEM: BOX BOUNDS pp pp pp
0.0000000000000000e+00 8.6303750400000006e+00
0.0000000000000000e+00 8.6303750400000006e+00
0.0000000000000000e+00 8.6303750400000006e+00
ITEM: ATOMS c_outsp[1] c_outsp[2] c_outsp[3]
-0.320332 -0.375113 -0.869872
0.0922141 0.917415 -0.387101
0.986255 0.157861 -0.0487899
0.949841 0.304656 -0.070622
-0.404868 -0.537055 -0.740037
-0.712413 -0.47227 0.519066
0.0576579 -0.790271 0.610039
-0.443522 -0.676712 -0.587664
-0.325683 -0.681161 -0.655706
-0.146766 0.893743 -0.42389
0.465247 -0.31142 0.828591
0.639797 -0.209879 -0.739332
0.718675 0.311763 0.621539
0.913606 0.403923 0.0465874
0.352544 -0.933887 0.059736
0.967698 0.250554 0.028004
0.811795 -0.251443 -0.527035
0.0953204 -0.615512 -0.782342
-0.624101 -0.638896 0.449788
0.576782 0.572322 0.582898
-0.959351 -0.254734 0.121473
-0.89416 0.421967 -0.149739
0.376383 -0.185675 -0.907668
0.403827 -0.495037 -0.769326
-0.380169 -0.0446904 -0.923837
-0.814356 0.578368 0.0481135
-0.0635639 0.96407 0.257932
0.236242 0.283256 -0.929492
-0.502892 0.258443 -0.824807
-0.18153 0.159095 -0.970431
0.744542 0.66736 -0.0169603
-0.989366 0.113288 0.0912194
0.667327 0.733051 0.131569
-0.11251 -0.977598 0.177887
-0.673382 -0.667238 -0.318357