ITEM: TIMESTEP
5000
ITEM: NUMBER OF ATOMS
54
ITEM: BOX BOUNDS pp pp pp
0.0000000000000000e+00 8.6303750400000006e+00
0.0000000000000000e+00 8.6303750400000006e+00
0.0000000000000000e+00 8.6303750400000006e+00
ITEM: ATOMS c_outsp[1] c_outsp[2] c_outsp[3]
0.903859 -0.313744 0.290869
0.0848592 -0.443761 -0.892118
0.861361 -0.395658 -0.318609
0.0289588 0.996721 0.0755562
0.377976 -0.890476 0.253352
-0.304372 -0.161332 -0.938792
-0.526864 0.73836 0.420998
-0.260969 -0.324208 -0.909277
0.30934 0.0709924 -0.948298
0.910999 0.196034 0.362838
-0.916648 0.388082 0.0956478
0.137917 0.0976414 -0.985619
-0.500942 -0.364244 0.785101
0.154991 -0.915403 0.371503
0.285259 0.470762 -0.834872
-0.967698 -0.247169 -0.0496699
0.774128 -0.583898 -0.244516
-0.863493 0.203415 0.461522
0.512055 -0.738104 0.43932
-0.998464 0.0548505 0.00777118
0.623772 -0.693047 0.36138
-0.670336 -0.386303 -0.633577
-0.834647 0.451419 0.315572
-0.736233 0.214808 -0.64173
0.120916 0.982221 0.143598
-0.00777406 -0.415352 0.909628
0.692887 0.333319 -0.63938
-0.133459 -0.364355 0.921648
0.745494 -0.159868 -0.647056
0.415728 -0.163839 -0.89461
0.710908 0.44722 -0.542774
0.619238 0.747691 -0.239798
-0.640584 0.549198 -0.536687
0.206019 -0.885162 -0.417186
-0.19044 -0.781595 0.594004
-0.290196 -0.000434246 -0.956967
-0.572919 -0.584913 -0.574143
0.0303499 0.193513 -0.980628
0.821366 0.564825 -0.0795612
0.313616 -0.907095 0.280756
-0.466345 0.860319 0.205848
0.583073 0.746649 0.320219
0.311102 0.146653 -0.938993
-0.827546 -0.402061 -0.39181
-0.960126 -0.136225 0.244132
0.711538 0.677319 0.186958
-0.157044 -0.894087 -0.419458
0.805293 0.274729 -0.525384
-0.0831989 0.981036 0.175059
-0.46175 -0.637667 -0.616578
-0.330048 -0.689638 -0.644568
0.534446 0.516987 0.668649
0.491205 -0.618039 -0.613795
-0.976515 0.212854 0.0333492
ITEM: TIMESTEP
5005
ITEM: NUMBER OF ATOMS
54
ITEM: BOX BOUNDS pp pp pp
0.0000000000000000e+00 8.6303750400000006e+00
0.0000000000000000e+00 8.6303750400000006e+00
0.0000000000000000e+00 8.6303750400000006e+00
ITEM: ATOMS c_outsp[1] c_outsp[2] c_outsp[3]
0.878223 -0.354792 0.320697
0.0764102 -0.433874 -0.897727
0.838903 -0.457384 -0.295028
0.0961418 0.993557 0.060017
0.353948 -0.900974 0.250931
-0.311955 -0.141908 -0.939439
-0.485243 0.744348 0.458786
-0.267238 -0.307437 -0.913272
0.328732 0.100166 -0.939096
0.905274 0.198541 0.37558
-0.905688 0.417349 0.0744913
0.145169 0.127787 -0.98112
-0.500524 -0.358841 0.78785
0.15763 -0.901277 0.40355
0.298512 0.467446 -0.832097
-0.961907 -0.272627 -0.0202354
0.774809 -0.587748 -0.23286
-0.857583 0.217121 0.466273
0.47574 -0.767008 0.430548
-0.997626 0.0688535 -0.00158235
0.589806 -0.724234 0.357231
-0.687495 -0.410269 -0.599191
-0.827216 0.480217 0.291729
-0.737444 0.273171 -0.6177
0.118035 0.983679 0.13581
0.00935014 -0.393819 0.91914
0.698204 0.292295 -0.653509
-0.177225 -0.320283 0.930597
0.711332 -0.212292 -0.67003
0.427648 -0.209813 -0.879259
0.725815 0.416713 -0.547304
0.644076 0.73186 -0.22259
-0.596236 0.595912 -0.537952
0.214084 -0.883553 -0.416537
-0.200525 -0.78242 0.589584
-0.265339 0.0173358 -0.963999
-0.603196 -0.55103 -0.576646
0.0180318 0.217589 -0.975874
0.811247 0.572296 -0.119814
0.285645 -0.924336 0.253002
-0.463479 0.859956 0.213687
0.603848 0.721588 0.338641
0.26283 0.128626 -0.95623
-0.823629 -0.394826 -0.407122
-0.964819 -0.0897707 0.247115
0.745787 0.637531 0.193278
-0.151027 -0.881586 -0.447211
0.806105 0.255809 -0.533626
-0.107797 0.98518 0.133415
-0.458683 -0.610462 -0.645713
-0.337781 -0.699872 -0.629352
0.570873 0.491177 0.657913
0.493654 -0.616052 -0.613828
-0.976167 0.212323 0.0449036
ITEM: TIMESTEP
5010
ITEM: NUMBER OF ATOMS
54
ITEM: BOX BOUNDS pp pp pp
0.0000000000000000e+00 8.6303750400000006e+00
0.0000000000000000e+00 8.6303750400000006e+00
0.0000000000000000e+00 8.6303750400000006e+00
ITEM: ATOMS c_outsp[1] c_outsp[2] c_outsp[3]
0.849829 -0.393855 0.350241
0.06832 -0.422678 -0.903701
0.81206 -0.516192 -0.272223
0.163804 0.985565 0.042775
0.330488 -0.910865 0.247191
-0.316904 -0.123472 -0.940386
-0.442297 0.747089 0.496216
-0.272582 -0.290625 -0.917189
0.352361 0.126008 -0.927342
0.899448 0.202292 0.38739
-0.893683 0.445483 0.0536212
0.151606 0.158228 -0.975694
-0.500251 -0.352739 0.790774
0.160205 -0.885644 0.435855
0.31147 0.463512 -0.829544
-0.95459 -0.297762 0.00978201
0.774552 -0.592619 -0.22107
-0.852054 0.229822 0.470304
0.437592 -0.794827 0.420432
-0.996543 0.0821289 -0.0125051
0.554927 -0.754123 0.35122
-0.704354 -0.432441 -0.562921
-0.81861 0.507741 0.268471
-0.734201 0.330974 -0.592794
0.115181 0.985103 0.127693
0.0276534 -0.371829 0.927889
0.700146 0.251709 -0.66816
-0.217865 -0.273495 0.936875
0.671614 -0.260713 -0.693515
0.43552 -0.256266 -0.862931
0.739809 0.385117 -0.551695
0.667918 0.715443 -0.205003
-0.548238 0.639262 -0.53924
0.221157 -0.882116 -0.415887
-0.210284 -0.783015 0.585378
-0.239101 0.0351866 -0.970357
-0.631829 -0.515806 -0.578564
0.00803885 0.242126 -0.970211
0.799245 0.579572 -0.15907
0.257084 -0.940074 0.223985
-0.460899 0.859462 0.221129
0.622808 0.695845 0.357645
0.21251 0.11382 -0.970507
-0.819163 -0.38847 -0.421975
-0.96742 -0.0430925 0.249483
0.77877 0.5947 0.199623
-0.144141 -0.868459 -0.474344
0.806953 0.237438 -0.540786
-0.131449 0.987095 0.091458
-0.454208 -0.582135 -0.674399
-0.347872 -0.709045 -0.613384
0.606523 0.462689 0.646567
0.496453 -0.614086 -0.613542
-0.975466 0.212969 0.0557656
ITEM: TIMESTEP
5015
ITEM: NUMBER OF ATOMS
54
ITEM: BOX BOUNDS pp pp pp
0.0000000000000000e+00 8.6303750400000006e+00
0.0000000000000000e+00 8.6303750400000006e+00
0.0000000000000000e+00 8.6303750400000006e+00
ITEM: ATOMS c_outsp[1] c_outsp[2] c_outsp[3]
0.818797 -0.430817 0.379432
0.0606654 -0.410135 -0.910005
0.781286 -0.571797 -0.25028
0.231494 0.972544 0.0238313
0.307678 -0.920159 0.242161
-0.319336 -0.106173 -0.941675
-0.398171 0.746535 0.533053
-0.277023 -0.27381 -0.921025
0.379689 0.147885 -0.913217
0.893555 0.207227 0.398266
-0.880738 0.472446 0.0330946
0.157149 0.188962 -0.969328
-0.500145 -0.345943 0.793838
0.162735 -0.868449 0.468309
0.324169 0.458959 -0.827207
-0.945719 -0.32247 0.0403662
0.773319 -0.598502 -0.20922
-0.846949 0.241482 0.473671
0.397598 -0.821327 0.40907
-0.995188 0.0947469 -0.0249897
0.51921 -0.782651 0.343334
-0.720737 -0.452761 -0.524925
-0.80895 0.533985 0.245885
-0.726566 0.38786 -0.567156
0.112336 0.986484 0.119286
0.0471076 -0.349443 0.935773
0.698793 0.211914 -0.683213
-0.255153 -0.22425 0.940537
0.626735 -0.304455 -0.717294
0.439377 -0.302843 -0.845715
0.752848 0.352432 -0.555888
0.690781 0.698455 -0.187034
-0.496887 0.678849 -0.540618
0.227264 -0.880861 -0.415252
-0.219703 -0.783398 0.581393
-0.211411 0.0530446 -0.975957
-0.658801 -0.479317 -0.579859
0.000396673 0.266885 -0.963728
0.78545 0.586664 -0.197214
0.228021 -0.954188 0.19373
-0.458633 0.858832 0.228173
0.639904 0.669503 0.377212
0.160547 0.102516 -0.98169
-0.814231 -0.38302 -0.43626
-0.96792 0.00369238 0.25123
0.810193 0.548807 0.20591
-0.136349 -0.854793 -0.500737
0.807898 0.219597 -0.546881
-0.154162 0.986811 0.0493748
-0.448226 -0.552727 -0.702556
-0.360235 -0.716985 -0.596794
0.64113 0.431518 0.634621
0.499588 -0.612195 -0.612886
-0.97444 0.214772 0.0658787
ITEM: TIMESTEP
5020
ITEM: NUMBER OF ATOMS
54
ITEM: BOX BOUNDS pp pp pp
0.0000000000000000e+00 8.6303750400000006e+00
0.0000000000000000e+00 8.6303750400000006e+00
0.0000000000000000e+00 8.6303750400000006e+00
ITEM: ATOMS c_outsp[1] c_outsp[2] c_outsp[3]
0.785248 -0.465574 0.408198
0.0535279 -0.396219 -0.916594
0.747054 -0.623977 -0.229267
0.29872 0.954335 0.00320076
0.285596 -0.928871 0.235869
-0.319375 -0.0901453 -0.943331
-0.353019 0.742662 0.569061
-0.280581 -0.257034 -0.924774
0.41011 0.165251 -0.89694
0.887621 0.213285 0.408213
-0.866956 0.498216 0.0129687
0.161729 0.219977 -0.962005
-0.500225 -0.338461 0.797006
0.165246 -0.84965 0.500788
0.336641 0.45378 -0.82508
-0.935266 -0.346648 0.0714963
0.771074 -0.605381 -0.197382
-0.842303 0.252064 0.476434
0.355763 -0.846266 0.396569
-0.993517 0.106777 -0.0390198
0.482731 -0.809757 0.333564
-0.736475 -0.471188 -0.485372
-0.798351 0.558959 0.224055
-0.714643 0.443487 -0.54093
0.109483 0.987813 0.110631
0.0676811 -0.326725 0.942693
0.694269 0.173245 -0.698553
-0.288888 -0.172817 0.941636
0.577184 -0.342885 -0.74114
0.439284 -0.349203 -0.8277
0.764886 0.318659 -0.559826
0.712684 0.680905 -0.168672
-0.44253 0.714304 -0.542159
0.232432 -0.879797 -0.414647
-0.22877 -0.783584 0.577633
-0.182206 0.0708246 -0.980706
-0.684091 -0.441638 -0.580496
-0.00489756 0.291628 -0.956519
0.769961 0.593577 -0.23415
0.198552 -0.966564 0.162269
-0.456709 0.858067 0.234816
0.65509 0.642647 0.397318
0.10739 0.0949549 -0.989672
-0.808927 -0.378493 -0.449867
-0.966319 0.0504679 0.252349
0.839747 0.499861 0.212046
-0.127617 -0.840687 -0.526269
0.808994 0.202258 -0.551924
-0.17595 0.984372 0.00734859
-0.440638 -0.522293 -0.730102
-0.374758 -0.72353 -0.579708
0.674426 0.397684 0.622091
0.503041 -0.610437 -0.611814
-0.973115 0.217703 0.0751888
ITEM: TIMESTEP
5025
ITEM: NUMBER OF ATOMS
54
ITEM: BOX BOUNDS pp pp pp
0.0000000000000000e+00 8.6303750400000006e+00
0.0000000000000000e+00 8.6303750400000006e+00
0.0000000000000000e+00 8.6303750400000006e+00
ITEM: ATOMS c_outsp[1] c_outsp[2] c_outsp[3]
0.749311 -0.498032 0.43646
0.0469923 -0.380916 -0.923415
0.709836 -0.672573 -0.209234
0.364961 0.930827 -0.0190869
0.26431 -0.937015 0.228348
-0.317145 -0.0755057 -0.945367
-0.307001 0.735474 0.60401
-0.283275 -0.240336 -0.928436
0.442963 0.177663 -0.878761
0.881665 0.220401 0.417242
-0.852441 0.52278 -0.00669875
0.165283 0.25125 -0.953706
-0.500508 -0.330302 0.800245
0.167774 -0.829214 0.533157
0.348915 0.447963 -0.823157
-0.923211 -0.370192 0.103146
0.767782 -0.613233 -0.185625
-0.838144 0.261533 0.478659
0.312109 -0.869401 0.383053
-0.991479 0.118286 -0.0545706
0.445566 -0.835372 0.321908
-0.751411 -0.487702 -0.44444
-0.786922 0.582684 0.203056
-0.698567 0.497531 -0.514263
0.106602 0.98908 0.101771
0.089339 -0.30374 0.948557
0.686737 0.136015 -0.714068
-0.318895 -0.119478 0.940229
0.523543 -0.375433 -0.764822
0.435336 -0.39502 -0.808976
0.775869 0.283803 -0.563457
0.733645 0.662792 -0.149906
-0.385562 0.745296 -0.543944
0.236698 -0.878925 -0.414082
-0.237473 -0.783588 0.574105
-0.151429 0.088428 -0.984505
-0.70768 -0.402835 -0.580441
-0.00787493 0.316127 -0.948684
0.752891 0.600305 -0.269793
0.168791 -0.977089 0.129638
-0.455151 0.857165 0.241054
0.668322 0.615363 0.41794
0.0535216 0.0913261 -0.994382
-0.803349 -0.374895 -0.462692
-0.962624 0.0971208 0.252828
0.867115 0.447903 0.217931
-0.117912 -0.826257 -0.550814
0.810295 0.185385 -0.555926
-0.196832 0.979832 -0.034444
-0.431345 -0.490898 -0.756942
-0.391313 -0.728531 -0.562243
0.706139 0.361233 0.608998
0.50679 -0.608869 -0.61028
-0.971515 0.221724 0.0836445
ITEM: TIMESTEP
5030
ITEM: NUMBER OF ATOMS
54
ITEM: BOX BOUNDS pp pp pp
0.0000000000000000e+00 8.6303750400000006e+00
0.0000000000000000e+00 8.6303750400000006e+00
0.0000000000000000e+00 8.6303750400000006e+00
ITEM: ATOMS c_outsp[1] c_outsp[2] c_outsp[3]
0.711113 -0.528106 0.464137
0.0411461 -0.364221 -0.930403
0.670102 -0.717483 -0.190215
0.42967 0.901962 -0.0429862
0.243883 -0.944607 0.219632
-0.312772 -0.0623558 -0.947779
-0.260284 0.724999 0.637675
-0.285119 -0.223761 -0.932008
0.477552 0.184781 -0.858953
0.875696 0.228509 0.42537
-0.837297 0.546136 -0.0258505
0.167755 0.282746 -0.944412
-0.501007 -0.321474 0.803521
0.17036 -0.807122 0.565271
0.361018 0.441489 -0.821434
-0.909533 -0.393001 0.135281
0.763411 -0.622031 -0.174017
-0.834497 0.269852 0.480412
0.266682 -0.89049 0.368657
-0.989011 0.12934 -0.0716075
0.40779 -0.859428 0.308368
-0.765403 -0.502298 -0.402311
-0.774767 0.605196 0.18296
-0.67851 0.549694 -0.487301
0.103673 0.990277 0.0927547
0.112042 -0.280552 0.953277
0.676395 0.100512 -0.729649
-0.345026 -0.0645205 0.936373
0.466482 -0.401604 -0.788105
0.427657 -0.439987 -0.789633
0.785736 0.247869 -0.566728
0.753684 0.644107 -0.130719
-0.326421 0.771538 -0.546057
0.240102 -0.878245 -0.413566
-0.245803 -0.783424 0.570813
-0.119038 0.105744 -0.987243
-0.729546 -0.362973 -0.579667
-0.00859385 0.34016 -0.940328
0.73436 0.606837 -0.304079
0.13886 -0.985659 0.0958835
-0.45398 0.856127 0.24688
0.679557 0.587737 0.439053
-0.00054666 0.0917663 -0.99578
-0.797605 -0.372222 -0.474633
-0.95685 0.143541 0.252654
0.89197 0.393012 0.223454
-0.107205 -0.811633 -0.574246
0.811847 0.168938 -0.558896
-0.216831 0.973259 -0.0758332
-0.420249 -0.458624 -0.782978
-0.40975 -0.731855 -0.544512
0.735998 0.322239 0.595373
0.510806 -0.607547 -0.608246
-0.969664 0.226794 0.0911967
ITEM: TIMESTEP
5035
ITEM: NUMBER OF ATOMS
54
ITEM: BOX BOUNDS pp pp pp
0.0000000000000000e+00 8.6303750400000006e+00
0.0000000000000000e+00 8.6303750400000006e+00
0.0000000000000000e+00 8.6303750400000006e+00
ITEM: ATOMS c_outsp[1] c_outsp[2] c_outsp[3]
0.670787 -0.55572 0.491141
0.0360786 -0.346149 -0.937486
0.628307 -0.758662 -0.172226
0.492279 0.867743 -0.0684352
0.22437 -0.951662 0.209754
-0.306382 -0.0507818 -0.950553
-0.213038 0.711287 0.66984
-0.286131 -0.207352 -0.935486
0.51316 0.186379 -0.837812
0.869719 0.237545 0.432621
-0.821625 0.568294 -0.0444298
0.169098 0.314418 -0.934102
-0.501732 -0.311985 0.806802
0.173054 -0.783373 0.596975
0.37297 0.434336 -0.819906
-0.894214 -0.414975 0.167862
0.75793 -0.631741 -0.162623
-0.831376 0.276984 0.481761
0.219549 -0.909294 0.353529
-0.986045 0.140002 -0.0900868
0.369481 -0.881853 0.292949
-0.778321 -0.514988 -0.359171
-0.76198 0.626536 0.163826
-0.654667 0.5997 -0.460186
0.100677 0.991398 0.0836307
0.135748 -0.257227 0.956769
0.663472 0.0669897 -0.745196
-0.367157 -0.00823883 0.930122
0.406741 -0.420988 -0.81076
0.416393 -0.483818 -0.769764
0.794418 0.210869 -0.569591
0.772815 0.624832 -0.111095
-0.265579 0.792795 -0.548583
0.24269 -0.877751 -0.413103
-0.253751 -0.783106 0.567763
-0.0849983 0.122646 -0.988804
-0.749661 -0.322113 -0.578145
-0.00713852 0.363523 -0.931558
0.714497 0.61315 -0.336958
0.108897 -0.992176 0.0610578
-0.453214 0.854955 0.252289
0.688752 0.559857 0.460631
-0.0542855 0.0963532 -0.993866
-0.791806 -0.370459 -0.485596
-0.949018 0.189622 0.25181
0.913981 0.335302 0.228497
-0.0954758 -0.796958 -0.596441
0.813689 0.15287 -0.560839
-0.235975 0.964731 -0.116658
-0.407256 -0.425568 -0.808106
-0.429908 -0.733384 -0.526619
0.763739 0.280803 0.581251
0.515057 -0.606527 -0.605674
-0.967579 0.232865 0.0977997
ITEM: TIMESTEP
5040
ITEM: NUMBER OF ATOMS
54
ITEM: BOX BOUNDS pp pp pp
0.0000000000000000e+00 8.6303750400000006e+00
0.0000000000000000e+00 8.6303750400000006e+00
0.0000000000000000e+00 8.6303750400000006e+00
ITEM: ATOMS c_outsp[1] c_outsp[2] c_outsp[3]
0.62847 -0.58081 0.517383
0.0318798 -0.326724 -0.944582
0.584886 -0.796115 -0.15527
0.552209 0.828235 -0.0953556
0.205815 -0.958196 0.198749
-0.2981 -0.040855 -0.95366
-0.165436 0.694413 0.700301
-0.286326 -0.191159 -0.938869
0.549064 0.182339 -0.815648
0.863731 0.247443 0.439022
-0.805524 0.58927 -0.0623811
0.169276 0.346209 -0.922759
-0.502689 -0.301845 0.810058
0.175911 -0.757981 0.628108
0.384787 0.426475 -0.818571
-0.87724 -0.436019 0.20084
0.751309 -0.642324 -0.151508
-0.828791 0.282893 0.48278
0.170802 -0.92558 0.337828
-0.982502 0.150331 -0.109955
0.330717 -0.902572 0.275662
-0.790053 -0.525795 -0.315206
-0.748646 0.64676 0.145709
-0.627261 0.647305 -0.433058
0.097593 0.992438 0.0744517
0.160409 -0.23383 0.958954
0.648222 0.0356716 -0.760615
-0.385189 0.0490671 0.921532
0.345126 -0.433277 -0.832562
0.401713 -0.526248 -0.749459
0.801841 0.172821 -0.572
0.79105 0.604942 -0.0910158
-0.203542 0.808888 -0.551608
0.244513 -0.877436 -0.412697
-0.261307 -0.782648 0.56496
-0.0492941 0.138997 -0.989065
-0.767997 -0.280314 -0.575852
-0.00361676 0.386026 -0.922481
0.693436 0.619215 -0.368401
0.0790518 -0.996551 0.0252215
-0.452869 0.853652 0.25727
0.695866 0.531814 0.482644
-0.107157 0.105104 -0.988671
-0.786065 -0.369578 -0.495494
-0.939155 0.235263 0.250278
0.932822 0.27493 0.232932
-0.0827117 -0.78239 -0.617272
0.815857 0.137129 -0.561759
-0.254295 0.954337 -0.156765
-0.392278 -0.39184 -0.832213
-0.451608 -0.733018 -0.508659
0.789105 0.237054 0.566674
0.519507 -0.60586 -0.602533
-0.965278 0.239884 0.10341
ITEM: TIMESTEP
5045
ITEM: NUMBER OF ATOMS
54
ITEM: BOX BOUNDS pp pp pp
0.0000000000000000e+00 8.6303750400000006e+00
0.0000000000000000e+00 8.6303750400000006e+00
0.0000000000000000e+00 8.6303750400000006e+00
ITEM: ATOMS c_outsp[1] c_outsp[2] c_outsp[3]
0.5843 -0.603318 0.542771
0.0286397 -0.305991 -0.951604
0.540247 -0.829891 -0.139333
0.608877 0.783568 -0.123652
0.188254 -0.964221 0.186647
-0.288048 -0.0326321 -0.95706
-0.117655 0.674472 0.728865
-0.285721 -0.175233 -0.942156
0.584554 0.172649 -0.792773
0.857724 0.258142 0.444603
-0.78909 0.609091 -0.0796509
0.168259 0.378051 -0.910366
-0.503879 -0.291061 0.813259
0.178993 -0.73098 0.658506
0.396477 0.417872 -0.817428
-0.858601 -0.456043 0.234155
0.743523 -0.653734 -0.140733
-0.826746 0.287542 0.48354
0.120558 -0.939128 0.321722
-0.978303 0.160384 -0.131149
0.291581 -0.921508 0.256523
-0.800505 -0.534758 -0.270603
-0.73484 0.665927 0.128654
-0.596534 0.692294 -0.40605
0.0943992 0.993392 0.0652728
0.185971 -0.210422 0.959759
0.630919 0.00674383 -0.775819
-0.399047 0.107094 0.910655
0.282491 -0.438267 -0.8533
0.383804 -0.567039 -0.728808
0.807921 0.133747 -0.573913
0.808399 0.584403 -0.0704621
-0.140837 0.819696 -0.555215
0.245627 -0.87729 -0.412346
-0.268464 -0.782065 0.562407
-0.0119259 0.154644 -0.987898
-0.784519 -0.237634 -0.572765
0.00184268 0.4075 -0.913203
0.671314 0.624994 -0.398396
0.0494873 -0.998708 -0.0115569
-0.452955 0.852224 0.261814
0.700857 0.5037 0.50506
-0.158626 0.117973 -0.980265
-0.780497 -0.369541 -0.504245
-0.927292 0.280367 0.248039
0.948169 0.212095 0.236624
-0.0689116 -0.768098 -0.636614
0.818377 0.12166 -0.561656
-0.271821 0.942174 -0.196015
-0.375236 -0.35757 -0.855185
-0.474666 -0.730675 -0.49072
0.811851 0.191146 0.55169
0.524117 -0.605596 -0.598794
-0.962775 0.247795 0.107988
ITEM: TIMESTEP
5050
ITEM: NUMBER OF ATOMS
54
ITEM: BOX BOUNDS pp pp pp
0.0000000000000000e+00 8.6303750400000006e+00
0.0000000000000000e+00 8.6303750400000006e+00
0.0000000000000000e+00 8.6303750400000006e+00
ITEM: ATOMS c_outsp[1] c_outsp[2] c_outsp[3]
0.538423 -0.623196 0.56721
0.026447 -0.284007 -0.958457
0.494767 -0.860077 -0.124391
0.661705 0.733943 -0.153213
0.171715 -0.969751 0.173482
-0.276347 -0.026156 -0.960702
-0.0698701 0.65158 0.755356
-0.284334 -0.159627 -0.945343
0.61894 0.157404 -0.769505
0.851685 0.26958 0.449399
-0.772417 0.62779 -0.0961876
0.166027 0.409865 -0.896909
-0.505301 -0.279641 0.816377
0.182364 -0.702423 0.688001
0.408041 0.408493 -0.816478
-0.838287 -0.474963 0.26774
0.734546 -0.66592 -0.130355
-0.825235 0.290894 0.484116
0.0689587 -0.949728 0.305387
-0.973363 0.170213 -0.153597
0.252157 -0.93858 0.23555
-0.809599 -0.541922 -0.225542
-0.720626 0.684104 0.112694
-0.562743 0.73448 -0.379287
0.091074 0.99426 0.0561511
0.212378 -0.187065 0.959115
0.611849 -0.0196437 -0.790731
-0.408678 0.165533 0.897542
0.219722 -0.435871 -0.872776
0.362867 -0.605975 -0.7079
0.812565 0.0936822 -0.575292
0.82486 0.563173 -0.0494164
-0.0780059 0.825165 -0.559481
0.246094 -0.8773 -0.412047
-0.275214 -0.78137 0.560106
0.0270857 0.169422 -0.985171
-0.79919 -0.194132 -0.568865
0.00909326 0.4278 -0.903828
0.648274 0.630443 -0.426947
0.0203771 -0.998581 -0.0492003
-0.453478 0.850676 0.265909
0.703687 0.47561 0.527845
-0.208167 0.134856 -0.968752
-0.775216 -0.370298 -0.51178
-0.913466 0.324841 0.245069
0.959714 0.147043 0.23943
-0.0540883 -0.75426 -0.654344
0.821273 0.106403 -0.560526
-0.288587 0.928349 -0.234275
-0.356062 -0.322902 -0.876901
-0.498887 -0.726292 -0.472877
0.831745 0.14326 0.536354
0.528845 -0.605781 -0.594434
-0.960082 0.256538 0.111497
ITEM: TIMESTEP
5055
ITEM: NUMBER OF ATOMS
54
ITEM: BOX BOUNDS pp pp pp
0.0000000000000000e+00 8.6303750400000006e+00
0.0000000000000000e+00 8.6303750400000006e+00
0.0000000000000000e+00 8.6303750400000006e+00
ITEM: ATOMS c_outsp[1] c_outsp[2] c_outsp[3]
0.490985 -0.640404 0.590606
0.0253882 -0.260849 -0.965046
0.448788 -0.886792 -0.110406
0.710131 0.679626 -0.18391
0.156216 -0.974795 0.159281
-0.263111 -0.0214564 -0.964527
-0.0222597 0.625868 0.779611
-0.282186 -0.144401 -0.94843
0.651572 0.136792 -0.746152
0.845597 0.281699 0.453443
-0.755593 0.645405 -0.111943
0.162571 0.441565 -0.882378
-0.506948 -0.267591 0.819389
0.186091 -0.672386 0.716427
0.419472 0.398298 -0.815722
-0.816294 -0.4927 0.301515
0.724357 -0.678826 -0.12043
-0.824248 0.292914 0.484578
0.0161715 -0.957192 0.289002
-0.967596 0.179867 -0.177216
0.212536 -0.953707 0.212769
-0.817278 -0.547343 -0.1802
-0.706058 0.70136 0.097858
-0.526155 0.773712 -0.35289
0.0875948 0.99504 0.0471459
0.239566 -0.163817 0.95696
0.591304 -0.0433778 -0.805281
-0.414052 0.224077 0.882242
0.157723 -0.426117 -0.890813
0.339115 -0.642866 -0.686822
0.815677 0.0526686 -0.576104
0.840429 0.541204 -0.0278627
-0.0155962 0.825302 -0.564477
0.245979 -0.877452 -0.411792
-0.281548 -0.780577 0.558059
0.0676975 0.183153 -0.980751
-0.811966 -0.149867 -0.564137
0.0179741 0.446802 -0.894452
0.624455 0.635508 -0.454076
-0.00809434 -0.996121 -0.0876234
-0.454439 0.849018 0.269544
0.704315 0.447644 0.550958
-0.255279 0.155588 -0.954267
-0.770333 -0.371786 -0.518037
-0.897712 0.368597 0.241347
0.967166 0.0800628 0.241204
-0.0382713 -0.741065 -0.670341
0.824556 0.0912983 -0.558366
-0.304625 0.912979 -0.271429
-0.334699 -0.287994 -0.897238
-0.524071 -0.719822 -0.455199
0.848577 0.0935995 0.520726
0.533649 -0.606456 -0.589432
-0.957206 0.266052 0.113902
ITEM: TIMESTEP
5060
ITEM: NUMBER OF ATOMS
54
ITEM: BOX BOUNDS pp pp pp
0.0000000000000000e+00 8.6303750400000006e+00
0.0000000000000000e+00 8.6303750400000006e+00
0.0000000000000000e+00 8.6303750400000006e+00
ITEM: ATOMS c_outsp[1] c_outsp[2] c_outsp[3]
0.44214 -0.654911 0.612865
0.0255464 -0.23661 -0.971269
0.402617 -0.910179 -0.0973314
0.753614 0.620953 -0.2156
0.141765 -0.97936 0.144072
-0.248455 -0.0185495 -0.968466
0.0249999 0.597485 0.80149
-0.279301 -0.129615 -0.951415
0.681847 0.111089 -0.723011
0.839442 0.294442 0.456773
-0.738706 0.66198 -0.126872
0.157891 0.473058 -0.866768
-0.508809 -0.254919 0.822271
0.190241 -0.640961 0.743624
0.430755 0.387244 -0.815164
-0.792618 -0.509184 0.335392
0.712936 -0.692386 -0.111011
-0.823768 0.293566 0.485001
-0.0376119 -0.96135 0.272748
-0.960917 0.189394 -0.201914
0.172813 -0.966805 0.18821
-0.8235 -0.551082 -0.134745
-0.691178 0.717767 0.0841608
-0.487043 0.809864 -0.326969
0.0839391 0.995734 0.0383178
0.267467 -0.140733 0.953234
0.569582 -0.0643805 -0.819409
-0.415161 0.282413 0.864803
0.097397 -0.409151 -0.907254
0.31277 -0.67755 -0.665658
0.817152 0.0107609 -0.576322
0.855092 0.518444 -0.00578756
0.0458462 0.82018 -0.570265
0.245352 -0.87773 -0.411572
-0.287459 -0.779703 0.556264
0.109841 0.195649 -0.974503
-0.8228 -0.104903 -0.558566
0.0283137 0.464408 -0.885169
0.599999 0.640134 -0.479822
-0.0357337 -0.991293 -0.126732
-0.455833 0.847259 0.272704
0.702706 0.419904 0.574356
-0.299491 0.179948 -0.936976
-0.765952 -0.373933 -0.522964
-0.880071 0.411555 0.236848
0.97026 0.0114881 0.241791
-0.0215085 -0.728705 -0.68449
0.828234 0.0762836 -0.555167
-0.319966 0.896184 -0.307369
-0.311107 -0.253023 -0.916074
-0.550018 -0.711239 -0.437743
0.862155 0.0423895 0.504869
0.538484 -0.607655 -0.583773
-0.954153 0.276274 0.115175
ITEM: TIMESTEP
5065
ITEM: NUMBER OF ATOMS
54
ITEM: BOX BOUNDS pp pp pp
0.0000000000000000e+00 8.6303750400000006e+00
0.0000000000000000e+00 8.6303750400000006e+00
0.0000000000000000e+00 8.6303750400000006e+00
ITEM: ATOMS c_outsp[1] c_outsp[2] c_outsp[3]
0.392043 -0.666695 0.633893
0.0270006 -0.211401 -0.977026
0.356523 -0.930402 -0.0851116
0.791648 0.558325 -0.248125
0.128362 -0.983448 0.127879
-0.232484 -0.0174392 -0.972444
0.0717334 0.566594 0.820869
-0.275707 -0.115333 -0.954298
0.709217 0.0806464 -0.700363
0.833198 0.307753 0.459424
-0.721837 0.677561 -0.140933
0.151996 0.504246 -0.850078
-0.510868 -0.241629 0.825002
0.194883 -0.608266 0.769437
0.441863 0.37529 -0.81481
-0.767263 -0.524354 0.36927
0.700269 -0.706533 -0.102147
-0.823769 0.292816 0.485452
-0.0921762 -0.962057 0.256809
-0.95324 0.198834 -0.227593
0.13309 -0.97779 0.161906
-0.828243 -0.553203 -0.0893353
-0.676017 0.733398 0.0716101
-0.445686 0.842843 -0.301627
0.0800835 0.996345 0.029729
0.296004 -0.117866 0.947887
0.546975 -0.0826083 -0.833063
-0.412022 0.340228 0.845271
0.0396319 -0.385239 -0.921965
0.284061 -0.709888 -0.644491
0.816879 -0.0319738 -0.575922
0.868824 0.494835 0.0168187
0.105787 0.809938 -0.576897
0.244287 -0.878121 -0.411372
-0.29294 -0.778764 0.554718
0.153423 0.206712 -0.966298
-0.831638 -0.0593048 -0.552142
0.0399338 0.480547 -0.876059
0.575043 0.64426 -0.504237
-0.0623401 -0.984082 -0.166422
-0.457651 0.845413 0.275377
0.698824 0.392496 0.59799
-0.340371 0.207667 -0.917073
-0.762173 -0.376656 -0.52652
-0.860582 0.453635 0.231547
0.968764 -0.058303 0.241035
-0.00386886 -0.717373 -0.696679
0.832304 0.0612963 -0.55092
-0.334639 0.878095 -0.342003
-0.285266 -0.218177 -0.933286
-0.576525 -0.700535 -0.420559
0.872309 -0.0101251 0.48885
0.543304 -0.60941 -0.577443
-0.950925 0.287141 0.115287
ITEM: TIMESTEP
5070
ITEM: NUMBER OF ATOMS
54
ITEM: BOX BOUNDS pp pp pp
0.0000000000000000e+00 8.6303750400000006e+00
0.0000000000000000e+00 8.6303750400000006e+00
0.0000000000000000e+00 8.6303750400000006e+00
ITEM: ATOMS c_outsp[1] c_outsp[2] c_outsp[3]
0.340856 -0.67574 0.6536
0.029824 -0.185349 -0.98222
0.310737 -0.947636 -0.0736836
0.82377 0.492205 -0.281314
0.116 -0.987058 0.110725
-0.215304 -0.0181171 -0.976379
0.117767 0.533369 0.837645
-0.271437 -0.101621 -0.957076
0.733198 0.0458836 -0.678465
0.826842 0.321579 0.461433
-0.705064 0.6922 -0.154091
0.144909 0.535026 -0.832315
-0.513106 -0.227728 0.827564
0.200081 -0.574433 0.793721
0.452762 0.362393 -0.814664
-0.740233 -0.538159 0.403038
0.686343 -0.721192 -0.0938855
-0.824219 0.290632 0.486001
-0.147284 -0.959194 0.241359
-0.944486 0.208227 -0.254143
0.0934789 -0.986577 0.133897
-0.831498 -0.553773 -0.0441205
-0.660596 0.748324 0.0602041
-0.402359 0.872584 -0.276956
0.0760052 0.996877 0.0214422
0.325097 -0.0952628 0.94087
0.523769 -0.0980492 -0.846199
-0.40467 0.397211 0.82369
-0.0147192 -0.354758 -0.934842
0.253221 -0.739766 -0.623398
0.814744 -0.0754546 -0.57489
0.881593 0.470315 0.0399613
0.16371 0.794771 -0.584412
0.242861 -0.878609 -0.411175
-0.297983 -0.777778 0.553415
0.198317 0.216137 -0.95601
-0.838425 -0.013145 -0.544858
0.0526529 0.495172 -0.867198
0.549722 0.64782 -0.527384
-0.0877077 -0.97449 -0.206583
-0.459875 0.843494 0.277549
0.692639 0.365528 0.621804
-0.377533 0.238431 -0.894773
-0.759082 -0.379866 -0.528674
-0.839283 0.494762 0.225421
0.962482 -0.128891 0.238778
0.0145557 -0.707262 -0.706802
0.836757 0.0462746 -0.545616
-0.348672 0.858844 -0.375253
-0.257174 -0.183656 -0.948753
-0.603391 -0.687718 -0.403686
0.878898 -0.0636829 0.472739
0.548066 -0.611743 -0.570434
-0.947522 0.298591 0.114217
ITEM: TIMESTEP
5075
ITEM: NUMBER OF ATOMS
54
ITEM: BOX BOUNDS pp pp pp
0.0000000000000000e+00 8.6303750400000006e+00
0.0000000000000000e+00 8.6303750400000006e+00
0.0000000000000000e+00 8.6303750400000006e+00
ITEM: ATOMS c_outsp[1] c_outsp[2] c_outsp[3]
0.288742 -0.68204 0.6719
0.0340831 -0.158598 -0.986755
0.265455 -0.962064 -0.0629784
0.849565 0.423114 -0.314982
0.104663 -0.990185 0.0926294
-0.197013 -0.020563 -0.980185
0.162929 0.497995 0.851737
-0.266527 -0.0885471 -0.959751
0.753374 0.00727227 -0.657552
0.820351 0.335867 0.462836
-0.688462 0.705946 -0.166313
0.136658 0.565295 -0.81349
-0.515497 -0.213221 0.82994
0.205897 -0.539617 0.816345
0.463407 0.348511 -0.814736
-0.71154 -0.550559 0.436573
0.671152 -0.736283 -0.0862678
-0.825079 0.286984 0.486708
-0.202679 -0.952674 0.22657
-0.934577 0.217606 -0.281449
0.0540968 -0.993081 0.104231
-0.833274 -0.552859 0.000762367
-0.644927 0.762611 0.0499319
-0.357332 0.899046 -0.253042
0.0716813 0.997336 0.0135201
0.35466 -0.0729699 0.932144
0.500238 -0.11072 -0.85878
-0.393166 0.453047 0.800106
-0.0648517 -0.318193 -0.945805
0.220482 -0.767094 -0.602457
0.810629 -0.119586 -0.573219
0.893354 0.444823 0.0636397
0.219128 0.774937 -0.592837
0.241153 -0.87918 -0.410959
-0.302582 -0.776763 0.552344
0.24437 0.223712 -0.943523
-0.843101 0.033499 -0.536711
0.0662903 0.508261 -0.858648
0.524165 0.65075 -0.549341
-0.111627 -0.96254 -0.247094
-0.462483 0.841518 0.279207
0.684123 0.339115 0.645738
-0.410645 0.271889 -0.870314
-0.75676 -0.383463 -0.529406
-0.816212 0.534863 0.218447
0.951268 -0.199819 0.234865
0.033649 -0.69856 -0.71476
0.841574 0.0311578 -0.539243
-0.362087 0.83857 -0.407054
-0.226853 -0.149674 -0.962359
-0.630422 -0.672813 -0.387157
0.881807 -0.118009 0.456608
0.552724 -0.614672 -0.562738
-0.943938 0.310563 0.111945
ITEM: TIMESTEP
5080
ITEM: NUMBER OF ATOMS
54
ITEM: BOX BOUNDS pp pp pp
0.0000000000000000e+00 8.6303750400000006e+00
0.0000000000000000e+00 8.6303750400000006e+00
0.0000000000000000e+00 8.6303750400000006e+00
ITEM: ATOMS c_outsp[1] c_outsp[2] c_outsp[3]
0.23587 -0.685595 0.688712
0.0398367 -0.131308 -0.990541
0.220838 -0.973873 -0.052923
0.868679 0.351624 -0.348937
0.0943297 -0.992816 0.0736123
-0.177705 -0.0247454 -0.983773
0.207052 0.460664 0.863087
-0.26102 -0.0761797 -0.962323
0.769399 -0.0346737 -0.637826
0.813703 0.350566 0.46367
-0.6721 0.718852 -0.177576
0.127288 0.594949 -0.79362
-0.518012 -0.198112 0.832115
0.212385 -0.503986 0.837192
0.473742 0.333604 -0.815032
-0.681199 -0.561524 0.469742
0.654692 -0.751721 -0.079333
-0.826303 0.281845 0.487634
-0.258089 -0.942439 0.212601
-0.923445 0.227002 -0.309386
0.0150728 -0.997221 0.072959
-0.833593 -0.550528 0.0451882
-0.629013 0.776325 0.0407742
-0.310871 0.922214 -0.22996
0.0670892 0.997729 0.00602542
0.3846 -0.0510287 0.921672
0.476643 -0.120665 -0.870776
-0.377592 0.507424 0.774561
-0.110024 -0.276129 -0.954802
0.186078 -0.791806 -0.581737
0.804414 -0.164255 -0.57091
0.904052 0.418297 0.0878471
0.271587 0.750743 -0.602184
0.239246 -0.879822 -0.4107
-0.306733 -0.775739 0.551492
0.291396 0.229226 -0.928732