ITEM: TIMESTEP
5500
ITEM: NUMBER OF ATOMS
54
ITEM: BOX BOUNDS pp pp pp
0.0000000000000000e+00 8.6303750400000006e+00
0.0000000000000000e+00 8.6303750400000006e+00
0.0000000000000000e+00 8.6303750400000006e+00
ITEM: ATOMS c_outsp[1] c_outsp[2] c_outsp[3]
0.818123 0.17079 -0.549096
0.361442 -0.702974 0.612525
-0.457173 0.888524 0.0389575
-0.199322 0.940751 -0.274332
-0.574806 0.529188 -0.624146
0.127714 0.0398961 -0.991008
0.892842 -0.27134 0.359454
-0.868669 0.0764682 -0.489455
-0.028503 0.979241 0.200684
0.717882 0.486833 0.497633
0.474765 -0.853841 0.213433
-0.663112 0.483684 -0.571254
0.642368 0.642226 0.418221
0.540808 0.833371 0.114102
-0.0385698 -0.757683 -0.651482
-0.961738 -0.264396 -0.0718004
0.861031 0.274849 -0.427884
-0.332422 -0.143801 -0.932104
0.467083 -0.878335 0.101792
-0.0423771 0.951236 0.305538
-0.374136 0.222198 -0.900361
0.902542 0.0513497 0.427529
0.408429 0.816049 0.408962
0.336751 -0.0409657 -0.940702
-0.29004 0.447469 -0.84596
-0.713699 -0.691204 -0.113447
0.961606 -0.25137 0.110124
-0.105057 -0.897634 0.428037
0.338025 -0.582447 -0.739252
-0.11336 -0.565411 -0.816982
0.583393 0.582414 0.566081
0.843978 -0.28532 0.454195
-0.844322 -0.532587 0.0589176
-0.109453 -0.849262 -0.516501
-0.100484 -0.993408 -0.0551605
-0.137566 -0.434415 -0.890146
-0.388553 -0.915694 0.102621
0.0150867 0.938462 -0.345054
0.233765 -0.921068 0.31143
0.225252 0.363242 -0.904056
0.0612491 0.145025 0.98753
-0.022973 -0.043989 0.998768
0.193905 -0.62682 -0.75465
0.705897 -0.476132 -0.524412
-0.972398 0.232638 -0.0179544
-0.487166 -0.397327 -0.777689
0.923995 0.372834 -0.0850188
-0.331683 0.916689 -0.222863
-0.938671 -0.112106 -0.326081
-0.583288 0.363351 -0.726465
-0.960491 -0.181766 0.210756
0.0168819 -0.116497 -0.993048
-0.982045 -0.0260339 0.186839
0.367291 -0.915001 -0.166947
ITEM: TIMESTEP
5505
ITEM: NUMBER OF ATOMS
54
ITEM: BOX BOUNDS pp pp pp
0.0000000000000000e+00 8.6303750400000006e+00
0.0000000000000000e+00 8.6303750400000006e+00
0.0000000000000000e+00 8.6303750400000006e+00
ITEM: ATOMS c_outsp[1] c_outsp[2] c_outsp[3]
0.801823 0.150552 -0.578286
0.370871 -0.695791 0.615085
-0.408727 0.910678 0.0600559
-0.183139 0.95407 -0.237088
-0.564846 0.566803 -0.599736
0.138721 0.0404226 -0.989506
0.887071 -0.309346 0.342652
-0.868714 0.0661892 -0.490872
-0.023912 0.981712 0.188863
0.75294 0.456008 0.474487
0.476219 -0.852148 0.216931
-0.639135 0.488365 -0.594143
0.679572 0.607164 0.411745
0.560267 0.819612 0.119742
-0.0856265 -0.734182 -0.673532
-0.964829 -0.256992 -0.0553144
0.862738 0.253809 -0.437338
-0.337096 -0.119866 -0.933809
0.419027 -0.901048 0.111934
-0.0113773 0.950732 0.309804
-0.365054 0.257004 -0.89481
0.905345 0.00315611 0.424665
0.430772 0.806394 0.405172
0.312765 -0.0357278 -0.949158
-0.274039 0.446787 -0.851636
-0.750991 -0.65211 -0.103752
0.946475 -0.304167 0.108016
-0.106419 -0.897807 0.427338
0.302208 -0.589304 -0.74926
-0.125012 -0.568411 -0.813192
0.586021 0.551248 0.59389
0.806522 -0.271271 0.525295
-0.865213 -0.499962 0.0380197
-0.106707 -0.837629 -0.535716
-0.142191 -0.988301 -0.0551644
-0.160618 -0.395153 -0.904464
-0.392342 -0.916919 0.0729877
0.0567044 0.950212 -0.306401
0.25669 -0.899254 0.354193
0.270161 0.337151 -0.901855
0.0215761 0.178672 0.983672
-0.0393649 -0.0682047 0.996894
0.175861 -0.649315 -0.739908
0.703914 -0.497182 -0.507262
-0.971384 0.234959 -0.0347515
-0.47934 -0.35629 -0.802054
0.945632 0.319091 -0.0629361
-0.267945 0.928893 -0.255661
-0.937534 -0.0350419 -0.346124
-0.586908 0.347538 -0.731271
-0.964511 -0.172105 0.200246
0.0390114 -0.146869 -0.988386
-0.988215 0.00562313 0.152966
0.302314 -0.942504 -0.142451
ITEM: TIMESTEP
5510
ITEM: NUMBER OF ATOMS
54
ITEM: BOX BOUNDS pp pp pp
0.0000000000000000e+00 8.6303750400000006e+00
0.0000000000000000e+00 8.6303750400000006e+00
0.0000000000000000e+00 8.6303750400000006e+00
ITEM: ATOMS c_outsp[1] c_outsp[2] c_outsp[3]
0.783135 0.133187 -0.607422
0.381599 -0.689041 0.61612
-0.358038 0.930128 0.0816747
-0.166976 0.965663 -0.199034
-0.554679 0.602209 -0.574173
0.149431 0.0416044 -0.987896
0.879505 -0.347016 0.325654
-0.868101 0.0573586 -0.493062
-0.0197652 0.983827 0.178029
0.786836 0.422005 0.450334
0.476805 -0.850866 0.220645
-0.615127 0.49135 -0.616598
0.71476 0.570192 0.404969
0.57928 0.805523 0.124771
-0.1324 -0.707575 -0.694124
-0.9676 -0.249407 -0.0393256
0.863642 0.232711 -0.447178
-0.33985 -0.0963143 -0.935535
0.369384 -0.921201 0.122245
0.0194077 0.949259 0.313896
-0.353996 0.2912 -0.888757
0.905101 -0.0460221 0.422699
0.453344 0.795911 0.401254
0.288746 -0.0290706 -0.956964
-0.257927 0.44518 -0.85749
-0.786079 -0.610877 -0.0943815
0.928345 -0.356706 0.104579
-0.105822 -0.898385 0.42627
0.26652 -0.593155 -0.759694
-0.136604 -0.570599 -0.809788
0.586375 0.520782 0.620444
0.764362 -0.255505 0.592004
-0.883827 -0.467514 0.016751
-0.101861 -0.826556 -0.553561
-0.184187 -0.981257 -0.0566524
-0.182269 -0.35405 -0.917293
-0.394751 -0.917797 0.0426675
0.0983603 0.958175 -0.268747
0.278912 -0.874666 0.396442
0.315616 0.308309 -0.897403
-0.0179645 0.212005 0.977103
-0.0567789 -0.0913729 0.994197
0.156918 -0.670932 -0.724725
0.701422 -0.517804 -0.489781
-0.9702 0.236761 -0.0515334
-0.468412 -0.316007 -0.825063
0.963613 0.264377 -0.0394237
-0.201092 0.936372 -0.287696
-0.930373 0.0428901 -0.364098
-0.589951 0.33303 -0.73556
-0.968015 -0.163091 0.190654
0.0582404 -0.178462 -0.982222
-0.992328 0.03595 0.118291
0.235346 -0.964759 -0.117697
ITEM: TIMESTEP
5515
ITEM: NUMBER OF ATOMS
54
ITEM: BOX BOUNDS pp pp pp
0.0000000000000000e+00 8.6303750400000006e+00
0.0000000000000000e+00 8.6303750400000006e+00
0.0000000000000000e+00 8.6303750400000006e+00
ITEM: ATOMS c_outsp[1] c_outsp[2] c_outsp[3]
0.762226 0.11886 -0.636305
0.393539 -0.682748 0.615616
-0.3052 0.94661 0.103837
-0.150916 0.975465 -0.160289
-0.544489 0.635334 -0.547614
0.159876 0.0434139 -0.986182
0.870166 -0.384256 0.308477
-0.866848 0.0500313 -0.496056
-0.0160703 0.985625 0.168184
0.819225 0.384875 0.425137
0.476552 -0.849961 0.224641
-0.591142 0.492719 -0.638576
0.747846 0.53142 0.397892
0.597838 0.791138 0.129189
-0.178672 -0.677854 -0.713155
-0.970066 -0.241668 -0.0238313
0.863701 0.21162 -0.457425
-0.340713 -0.0732664 -0.937308
0.31835 -0.938637 0.132721
0.0499541 0.946833 0.317825
-0.340993 0.324619 -0.882239
0.901677 -0.0959821 0.421622
0.47616 0.784556 0.397169
0.264788 -0.0209698 -0.964078
-0.241785 0.442644 -0.863485
-0.818816 -0.567666 -0.0854166
0.907173 -0.408737 0.0998558
-0.103378 -0.89932 0.424896
0.23129 -0.59395 -0.770538
-0.148098 -0.571973 -0.806792
0.584595 0.491235 0.645707
0.718035 -0.238142 0.653999
-0.900249 -0.435348 -0.00485892
-0.0950921 -0.816166 -0.569939
-0.226376 -0.97221 -0.0596782
-0.202374 -0.311264 -0.928525
-0.395789 -0.918266 0.0117764
0.139835 0.962542 -0.232289
0.300365 -0.84736 0.437907
0.361269 0.276714 -0.890457
-0.0572218 0.245004 0.967832
-0.0752032 -0.113389 0.9907
0.137141 -0.691617 -0.709125
0.698486 -0.537958 -0.471931
-0.968839 0.238082 -0.0683189
-0.454484 -0.276733 -0.846678
0.97781 0.208987 -0.0145618
-0.131446 0.938717 -0.31864
-0.917082 0.121046 -0.379879
-0.592354 0.319856 -0.739465
-0.971066 -0.154651 0.18197
0.074502 -0.211106 -0.97462
-0.994441 0.0647989 0.0829907
0.166834 -0.981602 -0.0928691
ITEM: TIMESTEP
5520
ITEM: NUMBER OF ATOMS
54
ITEM: BOX BOUNDS pp pp pp
0.0000000000000000e+00 8.6303750400000006e+00
0.0000000000000000e+00 8.6303750400000006e+00
0.0000000000000000e+00 8.6303750400000006e+00
ITEM: ATOMS c_outsp[1] c_outsp[2] c_outsp[3]
0.739281 0.107713 -0.664726
0.406597 -0.676922 0.61356
-0.250339 0.959851 0.126555
-0.135049 0.983425 -0.120981
-0.534453 0.666131 -0.520221
0.170088 0.0458223 -0.984363
0.859082 -0.420974 0.291135
-0.864969 0.0442616 -0.499869
-0.0128295 0.987144 0.15932
0.849753 0.344719 0.398859
0.475486 -0.849399 0.228986
-0.567225 0.492554 -0.660035
0.778754 0.490961 0.390511
0.615932 0.776492 0.132996
-0.224216 -0.64503 -0.730523
-0.972244 -0.233801 -0.00882109
0.862876 0.190606 -0.468097
-0.339721 -0.050838 -0.939151
0.266143 -0.953214 0.143354
0.0802435 0.943471 0.321596
-0.326096 0.3571 -0.875295
0.894958 -0.146505 0.421411
0.499237 0.772277 0.392875
0.240991 -0.0114056 -0.97046
-0.225691 0.439186 -0.869585
-0.84907 -0.522649 -0.0769317
0.882939 -0.460002 0.0938953
-0.0992074 -0.900558 0.423265
0.196859 -0.591671 -0.781775
-0.159457 -0.572534 -0.804225
0.58084 0.462818 0.669645
0.668084 -0.219326 0.711027
-0.914561 -0.403559 -0.0267851
-0.0865778 -0.806566 -0.58477
-0.268646 -0.961091 -0.0642914
-0.220802 -0.266972 -0.938069
-0.395466 -0.918272 -0.019561
0.180944 0.963519 -0.197205
0.320993 -0.817421 0.478317
0.406747 0.242393 -0.880797
-0.0960346 0.277657 0.955868
-0.0946146 -0.134154 0.986433
0.116597 -0.711319 -0.693131
0.69517 -0.557597 -0.453679
-0.967289 0.238964 -0.0851322
-0.43768 -0.238702 -0.866866
0.988124 0.153225 0.011556
-0.0593978 0.935556 -0.348148
-0.897639 0.198765 -0.393365
-0.594054 0.30803 -0.743114
-0.973724 -0.14671 0.174179
0.087755 -0.244615 -0.965641
-0.994634 0.0920385 0.0472459
0.0972477 -0.992924 -0.0681586
ITEM: TIMESTEP
5525
ITEM: NUMBER OF ATOMS
54
ITEM: BOX BOUNDS pp pp pp
0.0000000000000000e+00 8.6303750400000006e+00
0.0000000000000000e+00 8.6303750400000006e+00
0.0000000000000000e+00 8.6303750400000006e+00
ITEM: ATOMS c_outsp[1] c_outsp[2] c_outsp[3]
0.714502 0.0998593 -0.69247
0.420676 -0.671564 0.609945
-0.19361 0.969571 0.149825
-0.119473 0.989508 -0.081244
-0.52474 0.69457 -0.492159
0.180099 0.0488001 -0.982437
0.846286 -0.457081 0.273636
-0.862478 0.0401032 -0.504503
-0.010039 0.988418 0.151424
0.878065 0.301684 0.371469
0.47363 -0.849139 0.233747
-0.543413 0.490941 -0.68094
0.807411 0.448925 0.382823
0.633552 0.761619 0.136195
-0.268796 -0.609137 -0.746124
-0.97415 -0.225829 0.00572272
0.861131 0.169748 -0.479206
-0.336921 -0.0291409 -0.941082
0.213002 -0.964818 0.15413
0.110263 0.93919 0.325214
-0.309374 0.388486 -0.867967
0.884841 -0.197355 0.422027
0.522589 0.759016 0.388323
0.217455 -0.000362344 -0.97607
-0.209722 0.434824 -0.875754
-0.876727 -0.476015 -0.0689961
0.855647 -0.510238 0.0867566
-0.0934414 -0.902041 0.421415
0.163578 -0.586335 -0.793381
-0.17065 -0.572288 -0.802101
0.575288 0.435727 0.692232
0.615055 -0.199218 0.762902
-0.926845 -0.372232 -0.0490058
-0.0764904 -0.797846 -0.59799
-0.310867 -0.947832 -0.0705366
-0.237437 -0.221367 -0.945844
-0.393801 -0.917768 -0.051212
0.221533 0.961322 -0.163654
0.340752 -0.78497 0.517407
0.451655 0.205408 -0.868225
-0.134232 0.309955 0.941228
-0.114978 -0.153574 0.981425
0.0953475 -0.729995 -0.676769
0.691537 -0.576678 -0.434993
-0.965537 0.239443 -0.102003
-0.418152 -0.202135 -0.885602
0.994488 0.0973999 0.0388237
0.0145984 0.926559 -0.375866
-0.872102 0.275385 -0.404477
-0.594983 0.29755 -0.746632
-0.976039 -0.139192 0.167253
0.0979834 -0.278794 -0.955339
-0.993003 0.117557 0.0112379
0.0270683 -0.998675 -0.0437618
ITEM: TIMESTEP
5530
ITEM: NUMBER OF ATOMS
54
ITEM: BOX BOUNDS pp pp pp
0.0000000000000000e+00 8.6303750400000006e+00
0.0000000000000000e+00 8.6303750400000006e+00
0.0000000000000000e+00 8.6303750400000006e+00
ITEM: ATOMS c_outsp[1] c_outsp[2] c_outsp[3]
0.688102 0.0953868 -0.719317
0.435677 -0.666665 0.604767
-0.1352 0.975487 0.173627
-0.104288 0.993693 -0.0412185
-0.515511 0.720642 -0.463598
0.189941 0.0523171 -0.980401
0.831819 -0.492491 0.255987
-0.859386 0.0376075 -0.509942
-0.00768978 0.989479 0.144474
0.903811 0.255967 0.342939
0.471007 -0.849139 0.23899
-0.519737 0.487967 -0.701258
0.833749 0.405427 0.374822
0.650686 0.746556 0.13879
-0.312168 -0.57023 -0.759861
-0.975799 -0.217767 0.0198244
0.858436 0.149128 -0.490763
-0.332365 -0.00828193 -0.943115
0.159183 -0.973357 0.165034
0.140007 0.934005 0.328683
-0.290911 0.418629 -0.860303
0.871245 -0.248286 0.423422
0.546226 0.744712 0.38346
0.194286 0.0121718 -0.980869
-0.193945 0.429586 -0.881953
-0.901691 -0.42796 -0.0616725
0.825323 -0.559177 0.0785066
-0.0862164 -0.90371 0.419374
0.131799 -0.577996 -0.805326
-0.181649 -0.571242 -0.800428
0.568135 0.410141 0.713448
0.55949 -0.177991 0.8095
-0.937178 -0.341444 -0.0715014
-0.064997 -0.790084 -0.609543
-0.352896 -0.932368 -0.0784529
-0.252179 -0.174659 -0.951788
-0.390816 -0.916716 -0.0830363
0.261484 0.956169 -0.13178
0.359614 -0.75016 0.554922
0.495583 0.165855 -0.852578
-0.171636 0.341898 0.92393
-0.136249 -0.171566 0.975706
0.073456 -0.747608 -0.660066
0.687649 -0.595155 -0.415848
-0.963567 0.239555 -0.118965
-0.396069 -0.167229 -0.902864
0.996868 0.0418194 0.0671232
0.0900248 0.911454 -0.401432
-0.840608 0.350252 -0.413159
-0.595076 0.288396 -0.750142
-0.978058 -0.132024 0.161161
0.105197 -0.313437 -0.943764
-0.98966 0.141262 -0.0248539
-0.0432187 -0.998868 -0.0198752
ITEM: TIMESTEP
5535
ITEM: NUMBER OF ATOMS
54
ITEM: BOX BOUNDS pp pp pp
0.0000000000000000e+00 8.6303750400000006e+00
0.0000000000000000e+00 8.6303750400000006e+00
0.0000000000000000e+00 8.6303750400000006e+00
ITEM: ATOMS c_outsp[1] c_outsp[2] c_outsp[3]
0.660311 0.0943509 -0.745042
0.451496 -0.662203 0.598028
-0.075333 0.977318 0.197926
-0.0895986 0.995977 -0.00105021
-0.506915 0.744359 -0.434703
0.19965 0.0563431 -0.978246
0.815724 -0.527124 0.238191
-0.8557 0.036823 -0.51616
-0.00576739 0.990354 0.138441
0.926655 0.207813 0.313248
0.467637 -0.849352 0.24478
-0.496218 0.483719 -0.720961
0.857705 0.360582 0.366501
0.667323 0.73134 0.140788
-0.354086 -0.528394 -0.771637
-0.977207 -0.209628 0.0335138
0.854764 0.128836 -0.502773
-0.326114 0.0116378 -0.945259
0.104954 -0.978771 0.176044
0.169472 0.927929 0.332005
-0.270811 0.447391 -0.852351
0.854108 -0.299037 0.42553
0.570156 0.729292 0.378226
0.171594 0.0262047 -0.984819
-0.178423 0.423508 -0.888148
-0.923888 -0.378688 -0.0550164
0.792023 -0.606555 0.0692195
-0.077676 -0.905509 0.417157
0.101874 -0.566746 -0.81757
-0.192432 -0.569409 -0.799214
0.55959 0.38622 0.733275
0.501921 -0.155828 0.85076
-0.945638 -0.311264 -0.0942541
-0.0522578 -0.783345 -0.619386
-0.394568 -0.914636 -0.0880728
-0.264949 -0.127069 -0.955853
-0.386541 -0.915088 -0.114887
0.300709 0.948277 -0.101707
0.377568 -0.713172 0.590617
0.538112 0.123869 -0.833722
-0.208062 0.373482 0.904003
-0.15837 -0.188055 0.969306
0.0509826 -0.764124 -0.643052
0.683568 -0.61298 -0.396221
-0.961357 0.239334 -0.136056
-0.371619 -0.134157 -0.918641
0.995262 -0.0132115 0.0963257
0.166306 0.89003 -0.424487
-0.803378 0.422732 -0.419382
-0.594265 0.280535 -0.753757
-0.979821 -0.125133 0.155863
0.109428 -0.348337 -0.93096
-0.984733 0.163085 -0.0608553
-0.11313 -0.993575 0.00330788
ITEM: TIMESTEP
5540
ITEM: NUMBER OF ATOMS
54
ITEM: BOX BOUNDS pp pp pp
0.0000000000000000e+00 8.6303750400000006e+00
0.0000000000000000e+00 8.6303750400000006e+00
0.0000000000000000e+00 8.6303750400000006e+00
ITEM: ATOMS c_outsp[1] c_outsp[2] c_outsp[3]
0.631366 0.0967748 -0.769423
0.468029 -0.658151 0.589734
-0.0142674 0.97479 0.222666
-0.0755078 0.996378 0.0391114
-0.49909 0.765747 -0.405637
0.209262 0.0608479 -0.975965
0.798049 -0.5609 0.220248
-0.851423 0.0377941 -0.523115
-0.00425258 0.991068 0.13329
0.946282 0.157515 0.282383
0.463537 -0.849731 0.251179
-0.47287 0.478282 -0.740027
0.87922 0.314507 0.357852
0.683452 0.716012 0.142197
-0.394302 -0.483736 -0.781361
-0.978385 -0.201419 0.0468257
0.850093 0.108963 -0.515237
-0.318236 0.0305235 -0.94752
0.0505977 -0.98103 0.187138
0.198663 0.92097 0.335182
-0.249189 0.474649 -0.844164
0.83339 -0.349342 0.428277
0.594378 0.71268 0.37256
0.149494 0.04174 -0.987881
-0.163209 0.416635 -0.894303
-0.94326 -0.328409 -0.049076
0.75583 -0.652107 0.058976
-0.0679692 -0.907382 0.414774
0.0741468 -0.552716 -0.830065
-0.202978 -0.566799 -0.79846
0.549877 0.364106 0.751706
0.442864 -0.132918 0.886681
-0.952296 -0.281755 -0.117246
-0.0384254 -0.77768 -0.627485
-0.435704 -0.894582 -0.0994214
-0.275689 -0.0788244 -0.958009
-0.381014 -0.912871 -0.146613
0.339146 0.937855 -0.0735417
0.394618 -0.674217 0.624265
0.578816 0.07962 -0.811562
-0.243319 0.404706 0.881481
-0.181276 -0.202977 0.962257
0.0279852 -0.779515 -0.625758
0.679352 -0.630104 -0.376098
-0.958887 0.238809 -0.153316
-0.345008 -0.10307 -0.932924
0.989701 -0.0673966 0.126293
0.242813 0.86215 -0.444679
-0.760704 0.492223 -0.423139
-0.592484 0.273919 -0.757583
-0.981363 -0.118449 0.151314
0.110733 -0.383284 -0.916969
-0.978359 0.18298 -0.0965996
-0.182195 -0.982929 0.025601
ITEM: TIMESTEP
5545
ITEM: NUMBER OF ATOMS
54
ITEM: BOX BOUNDS pp pp pp
0.0000000000000000e+00 8.6303750400000006e+00
0.0000000000000000e+00 8.6303750400000006e+00
0.0000000000000000e+00 8.6303750400000006e+00
ITEM: ATOMS c_outsp[1] c_outsp[2] c_outsp[3]
0.601514 0.102648 -0.79224
0.485168 -0.654472 0.579895
0.0476998 0.967643 0.247772
-0.0621196 0.994928 0.0791148
-0.492159 0.784847 -0.376556
0.218817 0.0658009 -0.973545
0.778847 -0.593743 0.202156
-0.846555 0.0405596 -0.530754
-0.00312148 0.991642 0.128979
0.962402 0.105412 0.25034
0.458725 -0.850224 0.258245
-0.449702 0.471738 -0.75844
0.898239 0.26732 0.348866
0.699063 0.70061 0.143029
-0.43257 -0.436393 -0.788951
-0.979347 -0.193143 0.0597984
0.84441 0.0896053 -0.52815
-0.308804 0.0482878 -0.949899
-0.00360173 -0.980137 0.19829
0.227587 0.913134 0.338216
-0.226175 0.500293 -0.835794
0.809075 -0.398924 0.431576
0.618886 0.69479 0.366397
0.128107 0.0587765 -0.990017
-0.148348 0.409021 -0.900386
-0.959771 -0.277332 -0.0438913
0.716857 -0.695575 0.0478619
-0.0572492 -0.909283 0.412222
0.0489487 -0.536072 -0.842752
-0.213273 -0.563427 -0.798163
0.539228 0.343915 0.768736
0.382819 -0.109448 0.917317
-0.957223 -0.25297 -0.140461
-0.0236442 -0.773126 -0.633811
-0.476104 -0.872162 -0.112515
-0.284364 -0.030161 -0.958242
-0.374281 -0.91006 -0.178059
0.376758 0.925099 -0.0473753
0.410787 -0.633534 0.655659
0.617277 0.0333164 -0.78604
-0.277219 0.435565 0.856407
-0.204893 -0.216282 0.95459
0.00451946 -0.793759 -0.608215
0.675061 -0.646478 -0.355471
-0.95613 0.238005 -0.170789
-0.316449 -0.0740907 -0.945712
0.980245 -0.120452 0.156878
0.318875 0.827758 -0.461666
-0.712946 0.558166 -0.424451
-0.589665 0.26849 -0.761714
-0.982716 -0.111906 0.147464
0.109189 -0.418069 -0.901829
-0.970682 0.200923 -0.13193
-0.249959 -0.967123 0.0468281
ITEM: TIMESTEP
5550
ITEM: NUMBER OF ATOMS
54
ITEM: BOX BOUNDS pp pp pp
0.0000000000000000e+00 8.6303750400000006e+00
0.0000000000000000e+00 8.6303750400000006e+00
0.0000000000000000e+00 8.6303750400000006e+00
ITEM: ATOMS c_outsp[1] c_outsp[2] c_outsp[3]
0.571008 0.111927 -0.813278
0.502806 -0.651123 0.568529
0.110234 0.955635 0.273147
-0.0495343 0.991681 0.118807
-0.486231 0.801716 -0.347607
0.228358 0.0711716 -0.970972
0.758172 -0.625582 0.183909
-0.841089 0.0451518 -0.53901
-0.00234602 0.992096 0.125463
0.974764 0.0518841 0.217125
0.453212 -0.850779 0.266034
-0.426714 0.464164 -0.776187
0.91471 0.219141 0.339533
0.714144 0.685175 0.143297
-0.468652 -0.386528 -0.794331
-0.980101 -0.184797 0.072473
0.837706 0.0708611 -0.541505
-0.297898 0.064851 -0.952392
-0.0573569 -0.976131 0.209471
0.256254 0.904423 0.341106
-0.201908 0.524227 -0.827296
0.781169 -0.447504 0.435332
0.64366 0.675529 0.35967
0.107561 0.0773081 -0.991188
-0.133873 0.40072 -0.906367
-0.973404 -0.225667 -0.0394942
0.675248 -0.736714 0.0359674
-0.0456727 -0.911168 0.409496
0.0265922 -0.517018 -0.855561
-0.223306 -0.559307 -0.798317
0.527886 0.32574 0.784366
0.322258 -0.0856026 0.942774
-0.960488 -0.224959 -0.163881
-0.00805 -0.769709 -0.638344
-0.515552 -0.84734 -0.12736
-0.29096 0.0186849 -0.956553
-0.366399 -0.906665 -0.209069
0.41353 0.910193 -0.0232831
0.426114 -0.591383 0.684611
0.653084 -0.0147991 -0.757141
-0.30957 0.46605 0.828833
-0.229139 -0.227929 0.946332
-0.0193622 -0.806836 -0.590459
0.67075 -0.662051 -0.334339
-0.953057 0.236945 -0.188517
-0.286167 -0.0473156 -0.957011
0.966986 -0.172109 0.187927
0.393785 0.786882 -0.475132
-0.660527 0.620055 -0.423363
-0.585743 0.264175 -0.766235
-0.983906 -0.105439 0.14426
0.104893 -0.452491 -0.885579
-0.961851 0.216915 -0.166703
-0.315997 -0.946404 0.0668261
ITEM: TIMESTEP
5555
ITEM: NUMBER OF ATOMS
54
ITEM: BOX BOUNDS pp pp pp
0.0000000000000000e+00 8.6303750400000006e+00
0.0000000000000000e+00 8.6303750400000006e+00
0.0000000000000000e+00 8.6303750400000006e+00
ITEM: ATOMS c_outsp[1] c_outsp[2] c_outsp[3]
0.540105 0.124533 -0.832333
0.520834 -0.648055 0.555659
0.172965 0.93855 0.298676
-0.0378479 0.986708 0.158037
-0.481401 0.816419 -0.318925
0.23793 0.0769286 -0.968231
0.736082 -0.656348 0.165502
-0.835012 0.0515947 -0.547807
-0.00189431 0.992443 0.12269
0.983155 -0.00265408 0.182755
0.44701 -0.85134 0.274595
-0.403899 0.455633 -0.793261
0.928586 0.170094 0.329843
0.728687 0.669748 0.143015
-0.502316 -0.334332 -0.797434
-0.980655 -0.176377 0.0848923
0.82998 0.0528299 -0.555286
-0.285603 0.0801421 -0.954991
-0.110385 -0.969086 0.220652
0.28468 0.89483 0.343855
-0.17654 0.546377 -0.818722
0.749707 -0.494802 0.439444
0.668671 0.654795 0.352311
0.0879907 0.0973221 -0.991356
-0.119808 0.391795 -0.912219
-0.984158 -0.17362 -0.0359092
0.631173 -0.775289 0.0233856
-0.0333987 -0.913003 0.406582
0.00736514 -0.495794 -0.868409
-0.233067 -0.554454 -0.798912
0.516093 0.309647 0.798603
0.261629 -0.0615594 0.963203
-0.962153 -0.197763 -0.187485
0.00822969 -0.767441 -0.641067
-0.553816 -0.820101 -0.143953
-0.295488 0.0674781 -0.95296
-0.357434 -0.902711 -0.239486
0.44946 0.8933 -0.00132595
0.440656 -0.548046 0.710963
0.685846 -0.0644502 -0.724888
-0.340183 0.496146 0.798821
-0.253929 -0.237894 0.937511
-0.0436102 -0.818728 -0.572523
0.666476 -0.676773 -0.31271
-0.949638 0.235646 -0.206541
-0.254392 -0.022814 -0.966832
0.950041 -0.222118 0.219284
0.466811 0.739642 -0.484786
-0.603919 0.677443 -0.419944
-0.580652 0.260893 -0.771218
-0.984956 -0.0989912 0.141644
0.0979568 -0.486354 -0.868254
-0.952016 0.230977 -0.200788
-0.379915 -0.921066 0.0854483
ITEM: TIMESTEP
5560
ITEM: NUMBER OF ATOMS
54
ITEM: BOX BOUNDS pp pp pp
0.0000000000000000e+00 8.6303750400000006e+00
0.0000000000000000e+00 8.6303750400000006e+00
0.0000000000000000e+00 8.6303750400000006e+00
ITEM: ATOMS c_outsp[1] c_outsp[2] c_outsp[3]
0.50906 0.140351 -0.849211
0.539144 -0.645214 0.541315
0.235486 0.916203 0.32422
-0.0271497 0.980097 0.196653
-0.477748 0.82903 -0.290631
0.247582 0.08304 -0.965302
0.712637 -0.685974 0.146928
-0.828308 0.059903 -0.557062
-0.0017311 0.992699 0.120608
0.98741 -0.0577573 0.147262
0.440129 -0.851849 0.283972
-0.381249 0.446208 -0.809659
0.939822 0.120304 0.319783
0.742682 0.654372 0.142202
-0.533345 -0.280021 -0.798205
-0.981015 -0.167872 0.0970993
0.821239 0.0356117 -0.569473
-0.272005 0.0940988 -0.957684
-0.16241 -0.959109 0.231805
0.312879 0.884347 0.346464
-0.150225 0.566682 -0.810126
0.714746 -0.540534 0.443802
0.693872 0.632481 0.344252
0.0695376 0.118798 -0.99048
-0.106167 0.382305 -0.917917
-0.992051 -0.121391 -0.0331528
0.584837 -0.811087 0.0102109
-0.020587 -0.914764 0.403464
-0.00847481 -0.472669 -0.881199
-0.242551 -0.548884 -0.799935
0.504098 0.295677 0.811455
0.201349 -0.0374878 0.978802
-0.962282 -0.171418 -0.211256
0.0250758 -0.766323 -0.641965
-0.590652 -0.790441 -0.162275
-0.297983 0.115988 -0.947498
-0.347463 -0.898233 -0.269159
0.484556 0.874566 0.0184483
0.454484 -0.503822 0.73458
0.715193 -0.115331 -0.689346
-0.368877 0.525828 0.766443
-0.279171 -0.24616 0.928153
-0.0681777 -0.829423 -0.554444
0.662293 -0.690593 -0.2906
-0.945836 0.234122 -0.224903
-0.221355 -0.000628377 -0.975193
0.929553 -0.270252 0.250788
0.537209 0.686252 -0.490373
-0.543638 0.72995 -0.414284
-0.574329 0.258554 -0.776721
-0.985883 -0.092509 0.139556
0.088506 -0.519474 -0.84989
-0.941322 0.243151 -0.234072
-0.441359 -0.89145 0.102566
ITEM: TIMESTEP
5565
ITEM: NUMBER OF ATOMS
54
ITEM: BOX BOUNDS pp pp pp
0.0000000000000000e+00 8.6303750400000006e+00
0.0000000000000000e+00 8.6303750400000006e+00
0.0000000000000000e+00 8.6303750400000006e+00
ITEM: ATOMS c_outsp[1] c_outsp[2] c_outsp[3]
0.478129 0.159236 -0.863734
0.557629 -0.642544 0.525535
0.297359 0.888449 0.349623
-0.0175216 0.971956 0.234509
-0.475336 0.839628 -0.262833
0.257366 0.0894721 -0.962163
0.6879 -0.714397 0.12818
-0.820951 0.0700809 -0.566681
-0.00181823 0.992874 0.119159
0.987415 -0.112958 0.110687
0.432577 -0.852245 0.294204
-0.358746 0.435944 -0.825381
0.948379 0.0699008 0.30934
0.756122 0.639088 0.140877
-0.561537 -0.223833 -0.796602
-0.981183 -0.159274 0.109137
0.811495 0.0193053 -0.58404
-0.257197 0.106669 -0.960454
-0.213173 -0.946338 0.242902
0.340868 0.872956 0.348937
-0.123124 0.585104 -0.801557
0.676372 -0.584424 0.448296
0.719202 0.60847 0.335429
0.0523519 0.141708 -0.988523
-0.0929531 0.372313 -0.923441
-0.997116 -0.0691699 -0.0312349
0.536467 -0.843914 -0.00346202
-0.00739688 -0.916432 0.400123
-0.0207057 -0.44794 -0.893824
-0.251753 -0.54261 -0.801371
0.492145 0.283842 0.822938
0.1418 -0.0135458 0.989803
-0.960934 -0.145952 -0.235169
0.0423772 -0.766344 -0.641031
-0.6258 -0.758381 -0.182295
-0.298501 0.163992 -0.940215
-0.336576 -0.893279 -0.297941
0.518832 0.854118 0.0360033
0.467683 -0.459022 0.755361
0.740788 -0.167107 -0.650622
-0.395476 0.555062 0.731782
-0.304774 -0.252727 0.918282
-0.0930211 -0.838911 -0.53626
0.658253 -0.703463 -0.268035
-0.941615 0.232383 -0.243636
-0.187286 0.0192253 -0.982117
0.905688 -0.316307 0.282276
0.604235 0.627018 -0.491678
-0.48023 0.777264 -0.406496
-0.566712 0.257061 -0.782788
-0.986706 -0.085945 0.137934
0.076678 -0.551677 -0.830526
-0.929913 0.253499 -0.266458
-0.500019 -0.857928 0.118069
ITEM: TIMESTEP
5570
ITEM: NUMBER OF ATOMS
54
ITEM: BOX BOUNDS pp pp pp
0.0000000000000000e+00 8.6303750400000006e+00
0.0000000000000000e+00 8.6303750400000006e+00
0.0000000000000000e+00 8.6303750400000006e+00
ITEM: ATOMS c_outsp[1] c_outsp[2] c_outsp[3]
0.447561 0.181008 -0.875743
0.576182 -0.639988 0.508361
0.358116 0.855187 0.37471
-0.00903574 0.962407 0.271462
-0.474213 0.848296 -0.23562
0.267339 0.0961892 -0.95879
0.661934 -0.741558 0.109251
-0.812911 0.0821209 -0.576568
-0.00211517 0.992977 0.118286
0.983112 -0.167776 0.0730903
0.424361 -0.852465 0.30532
-0.336373 0.424888 -0.84043
0.954219 0.0190167 0.298504
0.769 0.623939 0.139062
-0.586709 -0.166032 -0.792594
-0.981161 -0.150569 0.121046
0.800771 0.00400816 -0.598957
-0.241271 0.117809 -0.963281
-0.26243 -0.930944 0.253915
0.368661 0.860635 0.351278
-0.0953999 0.601622 -0.793064
0.634695 -0.626198 0.452812
0.744577 0.582644 0.325777
0.0365913 0.166012 -0.985445
-0.08016 0.361876 -0.928773
-0.999398 -0.0171399 -0.0301586
0.486319 -0.873605 -0.01754
0.00601357 -0.917999 0.396537
-0.0291464 -0.421927 -0.906161
-0.260671 -0.535648 -0.803201
0.480475 0.274127 0.833066
0.0833306 0.010121 0.996471
-0.958164 -0.121388 -0.259203
0.0600308 -0.767479 -0.638257
-0.658997 -0.723962 -0.203966
-0.297118 0.21128 -0.931172
-0.324874 -0.887907 -0.325695
0.552305 0.832061 0.0513127
0.48035 -0.41397 0.773235
0.762329 -0.219423 -0.608858
-0.419815 0.583803 0.694931
-0.330642 -0.257603 0.907919
-0.118099 -0.847183 -0.51801
0.654407 -0.715335 -0.245047
-0.936937 0.230433 -0.262773
-0.152413 0.036756 -0.987633
0.878628 -0.360103 0.31359
0.66716 0.562342 -0.488537
-0.41426 0.819151 -0.396713
-0.557743 0.25631 -0.789448
-0.987435 -0.0792575 0.136714
0.0626176 -0.582804 -0.810196
-0.917922 0.262096 -0.297868
-0.555633 -0.820903 0.131869
ITEM: TIMESTEP
5575
ITEM: NUMBER OF ATOMS
54
ITEM: BOX BOUNDS pp pp pp
0.0000000000000000e+00 8.6303750400000006e+00
0.0000000000000000e+00 8.6303750400000006e+00
0.0000000000000000e+00 8.6303750400000006e+00
ITEM: ATOMS c_outsp[1] c_outsp[2] c_outsp[3]
0.4176 0.20546 -0.885097
0.594698 -0.637484 0.489845
0.417265 0.816369 0.399289
-0.0017539 0.951587 0.307375
-0.474413 0.855116 -0.209066
0.277558 0.103153 -0.955155
0.634805 -0.767397 0.0901338
-0.80415 0.096003 -0.586623
-0.00257953 0.993019 0.11793
0.974498 -0.221722 0.034544
0.415488 -0.852444 0.317347
-0.314109 0.413074 -0.854813
0.957311 -0.0322113 0.28726
0.781313 0.608967 0.136779
-0.6087 -0.106896 -0.786167
-0.980946 -0.141745 0.132865
0.789096 -0.0101856 -0.614185
-0.224321 0.127485 -0.96614
-0.309959 -0.913123 0.264822
0.396272 0.847356 0.353492
-0.067214 0.616234 -0.78469
0.58985 -0.665591 0.457236
0.769892 0.554879 0.315239
0.022421 0.191656 -0.981206
-0.0677733 0.351051 -0.933901
-0.998956 0.0345283 -0.0299216
0.434671 -0.900023 -0.0319325
0.0194892 -0.919466 0.392686
-0.0336609 -0.394969 -0.918078
-0.269304 -0.528013 -0.805405
0.469318 0.266488 0.841858
0.0262496 0.0333806 0.999098
-0.954028 -0.0977433 -0.283331
0.0779408 -0.769692 -0.63364
-0.689972 -0.687247 -0.227223
-0.293932 0.257652 -0.920445
-0.312469 -0.882187 -0.352293
0.584985 0.808486 0.0643587
0.492591 -0.368992 0.788162
0.779556 -0.271906 -0.564233
-0.441739 0.611995 0.655994
-0.356684 -0.260808 0.897082
-0.143375 -0.854232 -0.499731
0.650802 -0.726165 -0.221678
-0.931759 0.228277 -0.282338
-0.116954 0.0519965 -0.991775
0.848574 -0.401487 0.344573
0.725281 0.492713 -0.480834
-0.346304 0.855445 -0.385082
-0.547365 0.256191 -0.796717
-0.988082 -0.0724117 0.135832
0.0464746 -0.612709 -0.788941
-0.905471 0.269035 -0.328241
-0.607989 -0.780796 0.143898
ITEM: TIMESTEP
5580
ITEM: NUMBER OF ATOMS
54
ITEM: BOX BOUNDS pp pp pp
0.0000000000000000e+00 8.6303750400000006e+00
0.0000000000000000e+00 8.6303750400000006e+00
0.0000000000000000e+00 8.6303750400000006e+00
ITEM: ATOMS c_outsp[1] c_outsp[2] c_outsp[3]
0.388478 0.232355 -0.891682
0.613077 -0.634976 0.470046
0.474294 0.772001 0.423154
0.00427415 0.939647 0.342119
-0.475956 0.860171 -0.183225
0.288086 0.110321 -0.951229
0.606581 -0.791861 0.0708253
-0.794621 0.111694 -0.596743
-0.00316765 0.993005 0.118033
0.961628 -0.274313 -0.00486359
0.405967 -0.852112 0.330298
-0.291933 0.400527 -0.868535
0.957627 -0.0836419 0.275598
0.793058 0.594213 0.134053
-0.627372 -0.0467208 -0.777317
-0.980535 -0.132792 0.144629
0.776507 -0.0231856 -0.629682
-0.206442 0.135676 -0.969006
-0.355565 -0.893094 0.275602
0.423708 0.833083 0.355589
-0.0387249 0.628957 -0.776475
0.542001 -0.702348 0.461457
0.795018 0.525048 0.303761
0.0100134 0.218575 -0.975769
-0.0557713 0.339887 -0.938811
-0.995856 0.085676 -0.0305166
0.381819 -0.923064 -0.0465535
0.0328788 -0.920841 0.388551
-0.0341618 -0.367415 -0.92943
-0.27765 -0.519718 -0.807963