ITEM: TIMESTEP
7000
ITEM: NUMBER OF ATOMS
54
ITEM: BOX BOUNDS pp pp pp
0.0000000000000000e+00 8.6303750400000006e+00
0.0000000000000000e+00 8.6303750400000006e+00
0.0000000000000000e+00 8.6303750400000006e+00
ITEM: ATOMS c_outsp[1] c_outsp[2] c_outsp[3]
0.803041 0.593658 -0.0519205
-0.558767 -0.772111 -0.302696
-0.0991618 0.448489 -0.888271
-0.723247 0.686551 0.0745776
0.761005 0.00923105 -0.64868
-0.531061 -0.66248 0.528293
0.740355 0.656845 0.142932
-0.20417 -0.40599 -0.890779
0.137899 -0.98827 -0.0656219
0.780561 0.147742 0.607369
0.455968 0.551748 -0.698332
0.901893 0.371688 -0.220083
0.950219 0.110715 0.291249
0.17655 -0.616277 -0.767485
-0.796701 -0.481079 -0.365829
0.734764 0.382141 -0.560437
0.626039 -0.638006 0.448356
-0.388182 -0.661418 0.641748
0.740002 -0.667366 -0.0837794
0.924648 -0.358888 0.127376
0.707189 0.702145 -0.0829217
-0.0245912 -0.928291 0.37104
-0.918109 0.395861 -0.0192279
-0.769919 -0.352771 0.531769
0.542477 0.647349 0.535404
0.779307 -0.598222 -0.186578
-0.111849 0.509715 0.853042
-0.485961 -0.32152 -0.812691
-0.0441266 -0.326481 0.944173
-0.584699 -0.49492 -0.642792
-0.385425 -0.8637 -0.324762
0.223499 -0.0600699 0.972851
-0.563874 -0.0750877 -0.82244
0.472665 0.510664 0.718199
-0.858304 0.510981 0.047038
0.77379 -0.595905 0.214818
-0.19868 0.49182 -0.847726
-0.46475 -0.336082 -0.81918
-0.562952 0.488578 -0.666615
-0.175596 0.204075 -0.963078
-0.160079 -0.143012 0.97669
-0.414117 0.119204 -0.902384
-0.773873 -0.576281 -0.262719
-0.695185 -0.0491488 -0.717149
0.975299 -0.0605548 0.212426
-0.638666 0.0699247 -0.7663
-0.745969 -0.572645 0.340012
-0.67572 0.574097 -0.462401
-0.41705 -0.0550513 -0.907215
-0.375409 0.682811 -0.626768
0.413525 0.373132 -0.830524
0.232826 0.287358 -0.929095
-0.0209845 0.300839 -0.953444
0.913686 -0.145793 0.379371
ITEM: TIMESTEP
7005
ITEM: NUMBER OF ATOMS
54
ITEM: BOX BOUNDS pp pp pp
0.0000000000000000e+00 8.6303750400000006e+00
0.0000000000000000e+00 8.6303750400000006e+00
0.0000000000000000e+00 8.6303750400000006e+00
ITEM: ATOMS c_outsp[1] c_outsp[2] c_outsp[3]
0.819221 0.572837 -0.0271123
-0.563741 -0.758207 -0.327595
-0.0572469 0.492812 -0.86825
-0.722139 0.691449 0.0203031
0.760741 -0.0243695 -0.648598
-0.530688 -0.654883 0.538051
0.769132 0.616137 0.169737
-0.193762 -0.360231 -0.912518
0.139371 -0.984458 -0.106855
0.776929 0.133248 0.615326
0.485197 0.570047 -0.663046
0.906917 0.37155 -0.198626
0.943842 0.119565 0.308004
0.154211 -0.636284 -0.755884
-0.795017 -0.461266 -0.39393
0.738625 0.388387 -0.550989
0.605818 -0.638801 0.474255
-0.413786 -0.631293 0.655934
0.705501 -0.703222 -0.0880188
0.915011 -0.383494 0.125246
0.735363 0.672081 -0.0868775
-0.0451176 -0.924842 0.377665
-0.906209 0.421715 -0.0306978
-0.765011 -0.374022 0.524277
0.548469 0.624049 0.556547
0.741688 -0.649081 -0.169094
-0.13065 0.493095 0.860109
-0.53191 -0.268803 -0.803004
-0.0527846 -0.326689 0.943657
-0.599577 -0.454602 -0.658668
-0.374499 -0.865234 -0.333347
0.181493 -0.0626444 0.981395
-0.538077 -0.119308 -0.834409
0.478907 0.520286 0.707072
-0.858918 0.510569 0.0397392
0.72819 -0.659364 0.187026
-0.144863 0.488746 -0.860315
-0.482848 -0.340203 -0.80692
-0.550391 0.530322 -0.644847
-0.17969 0.214211 -0.960117
-0.150555 -0.111715 0.982269
-0.418636 0.120904 -0.90007
-0.777462 -0.572339 -0.260731
-0.691383 -0.00350699 -0.722479
0.9703 -0.108551 0.21618
-0.631797 0.0942749 -0.76938
-0.770554 -0.545003 0.330482
-0.645992 0.59123 -0.482846
-0.405535 -0.0513359 -0.912637
-0.348133 0.717033 -0.603877
0.435406 0.334483 -0.835789
0.229813 0.278642 -0.932494
-0.00993147 0.300203 -0.953824
0.916789 -0.174187 0.359385
ITEM: TIMESTEP
7010
ITEM: NUMBER OF ATOMS
54
ITEM: BOX BOUNDS pp pp pp
0.0000000000000000e+00 8.6303750400000006e+00
0.0000000000000000e+00 8.6303750400000006e+00
0.0000000000000000e+00 8.6303750400000006e+00
ITEM: ATOMS c_outsp[1] c_outsp[2] c_outsp[3]
0.834504 0.550997 -0.0024595
-0.568362 -0.743654 -0.352054
-0.0132348 0.533979 -0.845394
-0.717573 0.695665 -0.0337629
0.758243 -0.057398 -0.64944
-0.531282 -0.647234 0.546651
0.795143 0.574189 0.195078
-0.180909 -0.315042 -0.931676
0.141508 -0.978714 -0.148643
0.773199 0.118169 0.623056
0.513567 0.585927 -0.626848
0.911669 0.371161 -0.17635
0.937605 0.128004 0.323283
0.130328 -0.654352 -0.744874
-0.791904 -0.441928 -0.421412
0.74257 0.395575 -0.540473
0.585384 -0.638626 0.499482
-0.440868 -0.599884 0.667664
0.669696 -0.736777 -0.0930966
0.552676 0.600581 0.577799
0.699893 -0.698036 -0.151313
0.904712 -0.407959 0.122745
0.762974 0.640103 -0.0902174
-0.0652095 -0.920961 0.38416
-0.893891 0.446416 -0.0408891
-0.760676 -0.395068 0.515066
-0.149459 0.476122 0.866585
-0.572935 -0.211563 -0.791825
-0.0621711 -0.326722 0.943073
-0.612068 -0.412731 -0.674556
-0.363273 -0.866773 -0.34167
0.138221 -0.0643744 0.988307
-0.511596 -0.163614 -0.843505
0.485724 0.530158 0.694985
-0.859602 0.509915 0.0327304
0.677682 -0.718278 0.157558
-0.0898427 0.481691 -0.871723
-0.499828 -0.344931 -0.794478
-0.535536 0.570279 -0.622882
-0.183825 0.223395 -0.957237
-0.140039 -0.0812429 0.986807
-0.422463 0.124042 -0.897852
-0.781608 -0.567788 -0.258276
-0.68435 0.04263 -0.727907
0.962871 -0.15605 0.220292
-0.624561 0.119888 -0.771719
-0.794623 -0.516107 0.3197
-0.615142 0.607184 -0.502919
-0.393595 -0.0482653 -0.918016
-0.317682 0.749296 -0.581063
0.454681 0.294069 -0.840707
0.227071 0.270092 -0.935676
-0.000176581 0.298148 -0.95452
0.918395 -0.203662 0.339224
ITEM: TIMESTEP
7015
ITEM: NUMBER OF ATOMS
54
ITEM: BOX BOUNDS pp pp pp
0.0000000000000000e+00 8.6303750400000006e+00
0.0000000000000000e+00 8.6303750400000006e+00
0.0000000000000000e+00 8.6303750400000006e+00
ITEM: ATOMS c_outsp[1] c_outsp[2] c_outsp[3]
0.848861 0.528159 0.0219582
-0.572642 -0.728449 -0.376089
0.0325052 0.571792 -0.819754
-0.70961 0.699147 -0.0874482
0.753538 -0.0896811 -0.651259
-0.532826 -0.639646 0.55403
0.818426 0.531287 0.218889
-0.165662 -0.270729 -0.948294
0.144332 -0.970952 -0.190839
0.769372 0.102544 0.630517
0.540963 0.599436 -0.589945
0.916114 0.370458 -0.153284
0.931579 0.135992 0.337145
0.105079 -0.670432 -0.734493
-0.787414 -0.423159 -0.448236
0.746576 0.403604 -0.528894
0.564859 -0.637417 0.524054
-0.469278 -0.567131 0.676861
0.63278 -0.767983 -0.0989485
0.555061 0.577021 0.599128
0.654005 -0.744647 -0.133334
0.893759 -0.432228 0.119889
0.789879 0.606187 -0.0928932
-0.0848467 -0.916668 0.390539
-0.881296 0.46993 -0.0498261
-0.756914 -0.415767 0.504202
-0.168296 0.458841 0.872434
-0.608537 -0.150367 -0.779148
-0.0723166 -0.32659 0.942396
-0.622035 -0.369471 -0.690336
-0.351754 -0.868318 -0.349705
0.0937736 -0.0651911 0.993457
-0.484599 -0.207916 -0.849667
0.49315 0.540215 0.681888
-0.860343 0.509049 0.0260386
0.622624 -0.772207 0.126632
-0.0340066 0.470469 -0.881761
-0.515633 -0.350345 -0.781908
-0.518539 0.608383 -0.600823
-0.188111 0.231665 -0.954435
-0.128606 -0.0516612 0.990349
-0.425458 0.12852 -0.895806
-0.786332 -0.562548 -0.255387
-0.673999 0.0889948 -0.733352
0.953056 -0.202949 0.224714
-0.616811 0.146799 -0.773301
-0.818043 -0.485954 0.307659
-0.583255 0.621872 -0.522579
-0.381249 -0.0458355 -0.923335
-0.284212 0.779348 -0.558427
0.47115 0.252112 -0.845256
0.224684 0.261613 -0.938656
0.008136 0.294905 -0.955492
0.918391 -0.23416 0.318945
ITEM: TIMESTEP
7020
ITEM: NUMBER OF ATOMS
54
ITEM: BOX BOUNDS pp pp pp
0.0000000000000000e+00 8.6303750400000006e+00
0.0000000000000000e+00 8.6303750400000006e+00
0.0000000000000000e+00 8.6303750400000006e+00
ITEM: ATOMS c_outsp[1] c_outsp[2] c_outsp[3]
0.862269 0.504351 0.0460615
-0.576589 -0.712584 -0.399711
0.0796005 0.606088 -0.791405
-0.698325 0.701839 -0.140588
0.746665 -0.121042 -0.654095
-0.535303 -0.632223 0.56013
0.839044 0.487713 0.241124
-0.148104 -0.227577 -0.962431
0.147862 -0.961101 -0.233285
0.76545 0.0864139 0.637666
0.567289 0.61064 -0.552542
0.920215 0.369382 -0.129464
0.925826 0.143494 0.349652
0.0786395 -0.684491 -0.724768
-0.781608 -0.405051 -0.474365
0.750617 0.412369 -0.516262
0.544371 -0.635118 0.547983
-0.498841 -0.532965 0.683451
0.594947 -0.79681 -0.105508
0.555588 0.553448 0.620497
0.60416 -0.788482 -0.115265
0.882164 -0.456255 0.116693
0.815929 0.570317 -0.0948626
-0.104011 -0.911985 0.396819
-0.868555 0.492242 -0.0575347
-0.753719 -0.435983 0.491758
-0.187187 0.441304 0.877617
-0.638292 -0.0858382 -0.764994
-0.0832497 -0.326304 0.941592
-0.629356 -0.325001 -0.705893
-0.339948 -0.869871 -0.357435
0.0482578 -0.0650279 0.996716
-0.457266 -0.252133 -0.85284
0.50122 0.550381 0.667726
-0.861128 0.508007 0.019689
0.563411 -0.820755 0.0944917
0.0222186 0.454932 -0.890249
-0.530213 -0.356517 -0.769266
-0.49955 0.644581 -0.578761
-0.192648 0.239076 -0.951698
-0.116334 -0.0230257 0.992943
-0.42749 0.134222 -0.894001
-0.79165 -0.556539 -0.2521
-0.660272 0.135308 -0.738737
0.940903 -0.249152 0.229399
-0.608383 0.17502 -0.774105
-0.840676 -0.454548 0.294363
-0.550423 0.635213 -0.541793
-0.36852 -0.0440423 -0.928576
-0.247903 0.806951 -0.536073
0.484633 0.20886 -0.849416
0.222727 0.253101 -0.941452
0.0148957 0.290723 -0.956691
0.91667 -0.265615 0.298605
ITEM: TIMESTEP
7025
ITEM: NUMBER OF ATOMS
54
ITEM: BOX BOUNDS pp pp pp
0.0000000000000000e+00 8.6303750400000006e+00
0.0000000000000000e+00 8.6303750400000006e+00
0.0000000000000000e+00 8.6303750400000006e+00
ITEM: ATOMS c_outsp[1] c_outsp[2] c_outsp[3]
0.874707 0.479603 0.0697722
-0.580215 -0.696049 -0.422926
0.127679 0.636732 -0.760441
-0.683798 0.703677 -0.193026
0.737676 -0.1513 -0.657984
-0.538696 -0.625062 0.564893
0.857081 0.443735 0.261746
-0.128349 -0.18585 -0.974159
0.152113 -0.9491 -0.275809
0.761438 0.0698242 0.644467
0.592465 0.619623 -0.514833
0.923933 0.367881 -0.104938
0.9204 0.150469 0.360863
0.0511867 -0.696513 -0.715716
-0.774555 -0.387688 -0.499762
0.754664 0.421765 -0.502589
0.524044 -0.631679 0.571279
-0.529352 -0.497311 0.687364
0.556386 -0.823245 -0.112708
0.55423 0.529941 0.641866
0.550544 -0.829126 -0.09722
0.869941 -0.479994 0.113176
0.840965 0.532489 -0.0960901
-0.122687 -0.906932 0.403017
-0.85579 0.513344 -0.0640428
-0.751084 -0.455586 0.477823
-0.206155 0.423562 0.882097
-0.66185 -0.0186402 -0.749404
-0.0949965 -0.325872 0.940629
-0.633931 -0.279519 -0.721111
-0.327859 -0.871434 -0.364845
0.00180059 -0.0638226 0.99796
-0.429791 -0.296184 -0.852968
0.509974 0.560571 0.652447
-0.861939 0.506827 0.0137052
0.500473 -0.863572 0.0613989
0.0783734 0.434983 -0.897022
-0.543523 -0.363513 -0.756599
-0.478718 0.678838 -0.556783
-0.197526 0.245695 -0.949009
-0.103306 0.00462029 0.994639
-0.428437 0.141013 -0.892501
-0.79757 -0.549681 -0.248461
-0.643138 0.181281 -0.743983
0.926463 -0.294568 0.2343
-0.599104 0.204543 -0.774104
-0.862379 -0.421903 0.279822
-0.516747 0.647129 -0.560532
-0.35543 -0.042881 -0.933719
-0.208959 0.831887 -0.514101
0.494971 0.16458 -0.85318
0.22126 0.244448 -0.944081
0.0200271 0.285858 -0.958063
0.913124 -0.297953 0.27826
ITEM: TIMESTEP
7030
ITEM: NUMBER OF ATOMS
54
ITEM: BOX BOUNDS pp pp pp
0.0000000000000000e+00 8.6303750400000006e+00
0.0000000000000000e+00 8.6303750400000006e+00
0.0000000000000000e+00 8.6303750400000006e+00
ITEM: ATOMS c_outsp[1] c_outsp[2] c_outsp[3]
0.88616 0.453948 0.0930142
-0.583529 -0.678832 -0.445737
0.176374 0.663619 -0.726981
-0.666122 0.704589 -0.244612
0.726635 -0.180273 -0.662951
-0.542992 -0.618248 0.568269
0.87264 0.399606 0.280738
-0.106535 -0.145787 -0.983563
0.157095 -0.934906 -0.318232
0.757339 0.052823 0.650882
0.61643 0.626481 -0.477007
0.927227 0.365906 -0.0797623
0.915351 0.156881 0.370837
0.0228947 -0.706496 -0.707347
-0.76633 -0.371149 -0.524391
0.758686 0.431686 -0.487896
0.504005 -0.627062 0.593946
-0.560576 -0.46009 0.688529
0.51728 -0.847293 -0.120481
0.550965 0.506577 0.663188
0.493392 -0.866183 -0.0793189
0.857102 -0.503406 0.109359
0.86482 0.492712 -0.0965473
-0.140863 -0.901527 0.409154
-0.843113 0.533242 -0.0693793
-0.748994 -0.474459 0.46249
-0.225227 0.405674 0.885834
-0.67895 0.0505319 -0.732443
-0.107581 -0.325301 0.939471
-0.635676 -0.233231 -0.73588
-0.315491 -0.873005 -0.371924
-0.0454534 -0.0615187 0.99707
-0.40238 -0.33999 -0.849999
0.519451 0.570683 0.635997
-0.862761 0.505547 0.00810872
0.434267 -0.90036 0.0276351
0.133972 0.410574 -0.901932
-0.555528 -0.371386 -0.743949
-0.456189 0.71113 -0.534963
-0.202823 0.251598 -0.946341
-0.0896069 0.031246 0.995487
-0.428191 0.148744 -0.891363
-0.804091 -0.541892 -0.244522
-0.622592 0.226619 -0.749014
0.909784 -0.339113 0.239363
-0.588797 0.235331 -0.773265
-0.883005 -0.388043 0.264056
-0.482335 0.657548 -0.578777
-0.342002 -0.0423467 -0.938744
-0.167608 0.853955 -0.492613
0.50203 0.119559 -0.856546
0.220331 0.235544 -0.946559
0.0234911 0.280573 -0.959545
0.907651 -0.331092 0.257967
ITEM: TIMESTEP
7035
ITEM: NUMBER OF ATOMS
54
ITEM: BOX BOUNDS pp pp pp
0.0000000000000000e+00 8.6303750400000006e+00
0.0000000000000000e+00 8.6303750400000006e+00
0.0000000000000000e+00 8.6303750400000006e+00
ITEM: ATOMS c_outsp[1] c_outsp[2] c_outsp[3]
0.896616 0.427423 0.115713
-0.586544 -0.660917 -0.46814
0.225326 0.686677 -0.691161
-0.645396 0.7045 -0.295202
0.713621 -0.207778 -0.669009
-0.548177 -0.611853 0.570209
0.885841 0.355566 0.298092
-0.0828209 -0.107595 -0.990739
0.162814 -0.918493 -0.360365
0.753161 0.0354617 0.65688
0.639139 0.631324 -0.439239
0.930059 0.363419 -0.054003
0.91072 0.162691 0.379632
-0.00606635 -0.714452 -0.699659
-0.757015 -0.355506 -0.548219
0.762652 0.442024 -0.472204
0.484381 -0.621238 0.615986
-0.592251 -0.421227 0.686882
0.477808 -0.868976 -0.128761
0.545774 0.483434 0.684413
0.432986 -0.899288 -0.0616855
0.843662 -0.526455 0.105263
0.88732 0.451006 -0.0962135
-0.15853 -0.895787 0.415251
-0.830624 0.551952 -0.073575
-0.747434 -0.492491 0.445864
-0.244429 0.387697 0.888788
-0.689417 0.120964 -0.714193
-0.121024 -0.324595 0.938079
-0.634533 -0.186357 -0.750093
-0.302845 -0.874585 -0.378665
-0.0933426 -0.0580669 0.993939
-0.375251 -0.383471 -0.843882
0.529693 0.580603 0.618325
-0.863577 0.504209 0.00291866
0.365278 -0.930876 -0.00650302
0.18851 0.381716 -0.904852
-0.566201 -0.380185 -0.731352
-0.432104 0.741445 -0.513366
-0.208602 0.256875 -0.943663
-0.0753202 0.0568332 0.995538
-0.426658 0.157249 -0.890638
-0.811202 -0.533094 -0.240338
-0.598662 0.271024 -0.753758
0.89092 -0.382705 0.244537
-0.577276 0.267324 -0.771551
-0.902405 -0.353002 0.247093
-0.447303 0.666403 -0.596513
-0.328259 -0.0424343 -0.943634
-0.124097 0.872978 -0.471708
0.5057 0.074102 -0.859521
0.219976 0.226274 -0.9489
0.0252854 0.275136 -0.961073
0.900153 -0.364944 0.237784
ITEM: TIMESTEP
7040
ITEM: NUMBER OF ATOMS
54
ITEM: BOX BOUNDS pp pp pp
0.0000000000000000e+00 8.6303750400000006e+00
0.0000000000000000e+00 8.6303750400000006e+00
0.0000000000000000e+00 8.6303750400000006e+00
ITEM: ATOMS c_outsp[1] c_outsp[2] c_outsp[3]
0.906067 0.400068 0.137799
-0.589273 -0.642287 -0.490127
0.274188 0.705858 -0.653135
-0.621726 0.703327 -0.344656
0.698726 -0.233633 -0.676164
-0.554238 -0.605939 0.570664
0.896816 0.311835 0.313814
-0.057386 -0.0714557 -0.995792
0.169268 -0.899851 -0.402016
0.748914 0.0177945 0.662428
0.660566 0.634267 -0.401694
0.93239 0.360389 -0.0277329
0.906543 0.167859 0.387302
-0.0355321 -0.720406 -0.692642
-0.746696 -0.340822 -0.571215
0.766527 0.452675 -0.455545
0.465302 -0.614188 0.637391
-0.624088 -0.380647 0.682365
0.43814 -0.888331 -0.137483
0.538647 0.460591 0.705489
0.36965 -0.928108 -0.0444446
0.829634 -0.549111 0.100914
0.908286 0.407402 -0.0950762
-0.17568 -0.889729 0.42133
-0.818412 0.569495 -0.076662
-0.746383 -0.509585 0.42806
-0.263789 0.369695 0.890922
-0.693164 0.191934 -0.694755
-0.135346 -0.323753 0.936411
-0.630462 -0.139126 -0.76365
-0.289918 -0.876171 -0.385062
-0.141689 -0.053427 0.988468
-0.348636 -0.426545 -0.834573
0.540738 0.590204 0.599384
-0.864369 0.502855 -0.00184838
0.294008 -0.954936 -0.0407069
0.241474 0.34848 -0.905677
-0.57552 -0.389945 -0.718832
-0.406605 0.76978 -0.492049
-0.214917 0.26162 -0.940939
-0.0605295 0.0813763 0.994844
-0.423761 0.166353 -0.890367
-0.818883 -0.523208 -0.235975
-0.571401 0.314197 -0.758143
0.869922 -0.425269 0.249766
-0.564357 0.300432 -0.768922
-0.920432 -0.316826 0.228968
-0.411769 0.673633 -0.613731
-0.314226 -0.0431386 -0.948368
-0.0786893 0.888803 -0.451483
0.505907 0.0285244 -0.862116
0.220217 0.216527 -0.951115
0.0254445 0.269808 -0.962578
0.890533 -0.399411 0.217764
ITEM: TIMESTEP
7045
ITEM: NUMBER OF ATOMS
54
ITEM: BOX BOUNDS pp pp pp
0.0000000000000000e+00 8.6303750400000006e+00
0.0000000000000000e+00 8.6303750400000006e+00
0.0000000000000000e+00 8.6303750400000006e+00
ITEM: ATOMS c_outsp[1] c_outsp[2] c_outsp[3]
0.914508 0.371927 0.159202
-0.591731 -0.622921 -0.511687
0.322627 0.721146 -0.613074
-0.59523 0.700983 -0.392842
0.682058 -0.257658 -0.684405
-0.561162 -0.600552 0.569591
0.905712 0.268615 0.327921
-0.0304227 -0.0375174 -0.998833
0.176446 -0.878992 -0.442989
0.744611 -0.000121297 0.667498
0.680696 0.635434 -0.364523
0.934183 0.356794 -0.00103163
0.90285 0.172349 0.393901
-0.065345 -0.724394 -0.686282
-0.735465 -0.327149 -0.593351
0.770281 0.463536 -0.437952
0.446898 -0.605905 0.65815
-0.655768 -0.338287 0.67493
0.398436 -0.905407 -0.146584
0.529577 0.438124 0.726358
0.303745 -0.95235 -0.0277206
0.815034 -0.571349 0.0963336
0.927534 0.361948 -0.0931315
-0.192313 -0.883364 0.427416
-0.806555 0.585901 -0.0786746
-0.745818 -0.525655 0.409197
-0.283329 0.35173 0.892194
-0.690196 0.262726 -0.674244
-0.150562 -0.322773 0.934424
-0.62345 -0.0917709 -0.776459
-0.276708 -0.877762 -0.39111
-0.190302 -0.0475688 0.980573
-0.32278 -0.469124 -0.822031
0.552624 0.599342 0.579134
-0.865118 0.501531 -0.00617864
0.220975 -0.972418 -0.0746588
0.292352 0.311 -0.904328
-0.583471 -0.400691 -0.706405
-0.379827 0.796139 -0.471056
-0.221808 0.265937 -0.938125
-0.0453153 0.104882 0.993452
-0.419439 0.175868 -0.890585
-0.827103 -0.51216 -0.231501
-0.540897 0.355846 -0.762105
0.846841 -0.466733 0.254991
-0.549861 0.334539 -0.765335
-0.93694 -0.279569 0.209724
-0.375858 0.679184 -0.630429
-0.299926 -0.0444541 -0.952926
-0.0316654 0.901303 -0.43203
0.502603 -0.0168476 -0.864353
0.221067 0.20619 -0.953213
0.0240391 0.264847 -0.963991
0.878702 -0.434388 0.197964
ITEM: TIMESTEP
7050
ITEM: NUMBER OF ATOMS
54
ITEM: BOX BOUNDS pp pp pp
0.0000000000000000e+00 8.6303750400000006e+00
0.0000000000000000e+00 8.6303750400000006e+00
0.0000000000000000e+00 8.6303750400000006e+00
ITEM: ATOMS c_outsp[1] c_outsp[2] c_outsp[3]
0.921937 0.343048 0.17986
-0.593934 -0.602796 -0.532803
0.37033 0.73255 -0.571162
-0.56603 0.697378 -0.439628
0.663737 -0.279676 -0.693711
-0.568935 -0.595724 0.566945
0.912681 0.226087 0.340439
-0.0021333 -0.00589792 -0.99998
0.18433 -0.855949 -0.483088
0.740268 -0.0182264 0.672065
0.69953 0.634952 -0.327862
0.935405 0.35262 0.0260162
0.899665 0.17612 0.399481
-0.095356 -0.726463 -0.680558
-0.723418 -0.314531 -0.614603
0.773881 0.474504 -0.419469
0.429301 -0.596396 0.678242
-0.686948 -0.294098 0.664536
0.358847 -0.920267 -0.156007
0.518563 0.41611 0.746957
0.235663 -0.971765 -0.0116349
0.799872 -0.593147 0.0915484
0.944877 0.314704 -0.090384
-0.208428 -0.876703 0.433531
-0.795118 0.601202 -0.0796493
-0.745715 -0.540624 0.389402
-0.303075 0.333866 0.892569
-0.680601 0.33264 -0.652788
-0.166686 -0.321648 0.932072
-0.613508 -0.0445288 -0.788432
-0.263207 -0.879357 -0.396805
-0.238975 -0.0404738 0.970182
-0.297939 -0.511109 -0.806226
0.565382 0.607858 0.557541
-0.865806 0.500278 -0.0100615
0.146704 -0.983263 -0.108036
0.34064 0.26947 -0.90075
-0.590045 -0.41244 -0.694075
-0.351906 0.820537 -0.450424
-0.229303 0.269932 -0.935177
-0.0297543 0.127369 0.991409
-0.413648 0.1856 -0.891318
-0.835822 -0.499876 -0.226991
-0.507265 0.395681 -0.765584
0.82173 -0.50703 0.260154
-0.533613 0.369496 -0.760743
-0.951787 -0.241297 0.189411
-0.339699 0.68301 -0.646609
-0.285386 -0.0463752 -0.95729
0.0166836 0.910379 -0.41344
0.495777 -0.0616825 -0.866257
0.222522 0.195154 -0.955196
0.0211751 0.260499 -0.965242
0.864573 -0.46976 0.178435
ITEM: TIMESTEP
7055
ITEM: NUMBER OF ATOMS
54
ITEM: BOX BOUNDS pp pp pp
0.0000000000000000e+00 8.6303750400000006e+00
0.0000000000000000e+00 8.6303750400000006e+00
0.0000000000000000e+00 8.6303750400000006e+00
ITEM: ATOMS c_outsp[1] c_outsp[2] c_outsp[3]
0.928356 0.313481 0.199713
-0.5959 -0.581886 -0.553454
0.417 0.740103 -0.527596
-0.534263 0.692419 -0.484891
0.643899 -0.299517 -0.704048
-0.577537 -0.591474 0.562681
0.917883 0.184412 0.351402
0.0272738 0.0233162 -0.999356
0.192891 -0.830771 -0.522123
0.735903 -0.0364596 0.676104
0.717082 0.63295 -0.291835
0.936027 0.347865 0.0533221
0.897008 0.179133 0.40409
-0.125425 -0.726668 -0.675442
-0.710652 -0.303002 -0.634951
0.777297 0.485485 -0.400142
0.412644 -0.585681 0.697641
-0.717262 -0.248045 0.651159
0.319511 -0.932983 -0.165699
0.50561 0.394624 0.767222
0.165823 -0.986149 0.00369643
0.78416 -0.614489 0.0865834
0.960124 0.265743 -0.0868477
-0.22403 -0.869755 0.439701
-0.784156 0.615434 -0.0796256
-0.746048 -0.554431 0.368807
-0.323044 0.316171 0.892008
-0.664556 0.401007 -0.630523
-0.183729 -0.320365 0.929306
-0.60067 0.00236317 -0.799493
-0.249405 -0.880954 -0.40214
-0.287496 -0.0321355 0.957243
-0.274376 -0.552392 -0.787134
0.579037 0.615579 0.534582
-0.866415 0.499142 -0.0134896
0.0717244 -0.987478 -0.140512
0.385856 0.224147 -0.894915
-0.595242 -0.425193 -0.681834
-0.322973 0.842991 -0.430179
-0.237419 0.273717 -0.932047
-0.0139182 0.148864 0.98876
-0.406365 0.195348 -0.892584
-0.844989 -0.486289 -0.222524
-0.470646 0.433426 -0.768528
0.794641 -0.546095 0.26519
-0.515452 0.405129 -0.755103
-0.964836 -0.202087 0.168085
-0.303421 0.685072 -0.662278
-0.27063 -0.0488962 -0.961441
0.0660575 0.915958 -0.3958
0.485451 -0.105648 -0.867857
0.224573 0.183315 -0.957059
0.0169918 0.256994 -0.966264
0.848064 -0.505405 0.159228
ITEM: TIMESTEP
7060
ITEM: NUMBER OF ATOMS
54
ITEM: BOX BOUNDS pp pp pp
0.0000000000000000e+00 8.6303750400000006e+00
0.0000000000000000e+00 8.6303750400000006e+00
0.0000000000000000e+00 8.6303750400000006e+00
ITEM: ATOMS c_outsp[1] c_outsp[2] c_outsp[3]
0.933767 0.28328 0.218705
-0.597648 -0.560165 -0.573613
0.462366 0.743863 -0.482582
-0.500069 0.686011 -0.528507
0.622695 -0.317019 -0.715367
-0.586946 -0.587805 0.556758
0.921481 0.14373 0.360852
0.0575885 0.0500684 -0.997084
0.20209 -0.803533 -0.559906
0.731542 -0.0547588 0.679594
0.733373 0.629559 -0.256552
0.936024 0.342536 0.0807952
0.894891 0.181349 0.407779
-0.155421 -0.725073 -0.670905
-0.697268 -0.292583 -0.65438
0.780503 0.496383 -0.380025
0.397061 -0.573795 0.716311
-0.746323 -0.200118 0.634787
0.280556 -0.943636 -0.175609
0.490728 0.373742 0.787085
0.0946628 -0.995344 0.0181641
0.767906 -0.635362 0.0814637
0.973085 0.215157 -0.0825457
-0.239126 -0.862524 0.44595
-0.773713 0.628636 -0.0786461
-0.746788 -0.567026 0.347547
-0.343255 0.298709 0.890477
-0.642311 0.467192 -0.607592
-0.201698 -0.318908 0.926075
-0.584996 0.0486705 -0.809575
-0.235292 -0.882555 -0.407105
-0.335641 -0.0225608 0.94172
-0.252366 -0.592851 -0.764748
0.593606 0.62232 0.510245
-0.866926 0.498165 -0.0164593
-0.00343882 -0.985132 -0.171764
0.427548 0.175344 -0.886824
-0.599066 -0.438944 -0.669662
-0.293159 0.863527 -0.410339
-0.246161 0.277404 -0.928683
0.0021276 0.169408 0.985544
-0.397587 0.20491 -0.894392
-0.854539 -0.471338 -0.218182
-0.43121 0.468816 -0.770889
0.765626 -0.583865 0.270034
-0.495232 0.441236 -0.748369
-0.975955 -0.162024 0.145808
-0.267159 0.68534 -0.677448
-0.255685 -0.0520113 -0.96536
0.11615 0.918 -0.379191
0.471681 -0.148415 -0.869189
0.227194 0.170573 -0.958795
0.0116598 0.254545 -0.966991
0.829098 -0.541189 0.140394
ITEM: TIMESTEP
7065
ITEM: NUMBER OF ATOMS
54
ITEM: BOX BOUNDS pp pp pp
0.0000000000000000e+00 8.6303750400000006e+00
0.0000000000000000e+00 8.6303750400000006e+00
0.0000000000000000e+00 8.6303750400000006e+00
ITEM: ATOMS c_outsp[1] c_outsp[2] c_outsp[3]
0.938177 0.2525 0.236786
-0.599199 -0.537601 -0.593251
0.506178 0.743906 -0.436335
-0.463604 0.678058 -0.570358
0.600289 -0.332029 -0.727606
-0.597136 -0.584707 0.549133
0.923641 0.104162 0.368833
0.0886018 0.0743311 -0.99329
0.211879 -0.774326 -0.596261
0.72721 -0.0730611 0.682516
0.748437 0.624909 -0.222105
0.935377 0.336648 0.108344
0.893322 0.182729 0.410592
-0.185223 -0.721746 -0.666915
-0.683363 -0.283285 -0.672878
0.783473 0.507114 -0.359174
0.382685 -0.56079 0.734212
-0.773727 -0.150333 0.615424
0.242095 -0.952317 -0.185696
0.473932 0.353539 0.806473
0.022634 -0.999242 0.031668
0.751115 -0.655757 0.0762138
0.983568 0.16305 -0.0775103
-0.253729 -0.85501 0.452304
-0.763823 0.640846 -0.0767574
-0.747909 -0.578371 0.32576
-0.363719 0.281546 0.887942
-0.614189 0.530612 -0.584143
-0.220596 -0.317255 0.922327
-0.566566 0.0941646 -0.818618
-0.220852 -0.884159 -0.411688
-0.383183 -0.0117699 0.923597
-0.232185 -0.632347 -0.739072
0.609093 0.627882 0.484531
-0.86732 0.497389 -0.0189704
-0.0782709 -0.976362 -0.201473
0.465307 0.12343 -0.876502
-0.60153 -0.453676 -0.657526
-0.262593 0.882175 -0.390913
-0.255523 0.281107 -0.925033
0.0183246 0.189045 0.981797
-0.38733 0.214082 -0.896741
-0.864399 -0.454968 -0.214052
-0.389152 0.501604 -0.772628
0.734735 -0.620283 0.274617
-0.472828 0.47759 -0.740501
-0.985022 -0.121201 0.122644
-0.231045 0.683791 -0.692133
-0.240574 -0.0557148 -0.969031
0.166653 0.916491 -0.36369
0.454558 -0.189662 -0.870291
0.230354 0.156833 -0.960386
0.0053786 0.253342 -0.967362
0.807607 -0.576968 0.121981
ITEM: TIMESTEP
7070
ITEM: NUMBER OF ATOMS
54
ITEM: BOX BOUNDS pp pp pp
0.0000000000000000e+00 8.6303750400000006e+00
0.0000000000000000e+00 8.6303750400000006e+00
0.0000000000000000e+00 8.6303750400000006e+00
ITEM: ATOMS c_outsp[1] c_outsp[2] c_outsp[3]
0.941594 0.221202 0.253909
-0.600571 -0.514163 -0.612332
0.548209 0.74033 -0.389074
-0.425032 0.668465 -0.610329
0.576858 -0.344406 -0.740688
-0.608069 -0.582156 0.539764
0.924526 0.0658085 0.375395
0.12011 0.0961039 -0.988098
0.222196 -0.743263 -0.631022
0.722939 -0.0913042 0.684853
0.762313 0.619127 -0.188576
0.93407 0.330227 0.135878
0.892304 0.183233 0.412577
-0.214722 -0.71676 -0.663438
-0.669036 -0.275108 -0.690439
0.786185 0.517593 -0.337654
0.369647 -0.546735 0.751293
-0.799056 -0.0987345 0.593095
0.20423 -0.959117 -0.195921
0.455244 0.334087 0.825311
-0.0498048 -0.997784 0.0441186
0.733792 -0.675669 0.0708575
0.991387 0.109543 -0.0717829
-0.267853 -0.847213 0.458786
-0.754509 0.652103 -0.07401
-0.749382 -0.588441 0.303583
-0.384443 0.264748 0.884371
-0.580576 0.590739 -0.560321
-0.240423 -0.315378 0.918005
-0.545487 0.138626 -0.826575
-0.206069 -0.88577 -0.415869
-0.429894 0.000203143 0.90288
-0.214116 -0.670722 -0.710131
0.62549 0.632056 0.457458
-0.867578 0.496856 -0.0210269
-0.152273 -0.961365 -0.229326
0.498767 0.0688164 -0.864
-0.602651 -0.46936 -0.645378
-0.231402 0.898968 -0.3719
-0.265491 0.284941 -0.921045
0.0346222 0.207829 0.977552
-0.375634 0.222662 -0.899622
-0.874485 -0.43713 -0.210223
-0.344689 0.531562 -0.773713
0.702019 -0.655288 0.278866
-0.448136 0.513942 -0.731463
-0.991922 -0.0797224 0.0986634
-0.195214 0.680412 -0.706351
-0.225322 -0.0600006 -0.972435
0.217257 0.911449 -0.34937
0.434203 -0.229078 -0.871201
0.234009 0.142011 -0.961807
-0.00162716 0.253552 -0.96732
0.783527 -0.612587 0.104034
ITEM: TIMESTEP
7075
ITEM: NUMBER OF ATOMS
54
ITEM: BOX BOUNDS pp pp pp
0.0000000000000000e+00 8.6303750400000006e+00
0.0000000000000000e+00 8.6303750400000006e+00
0.0000000000000000e+00 8.6303750400000006e+00
ITEM: ATOMS c_outsp[1] c_outsp[2] c_outsp[3]
0.94403 0.189445 0.270035
-0.601785 -0.489817 -0.63082
0.588261 0.733248 -0.341022
-0.384529 0.657137 -0.648312
0.552592 -0.354025 -0.754525
-0.619705 -0.580115 0.528614
0.924296 0.0287494 0.380592
0.151917 0.115411 -0.981632
0.232971 -0.710476 -0.664039
0.718764 -0.109427 0.686589
0.775046 0.612338 -0.156032
0.932097 0.323305 0.163308
0.891832 0.182823 0.413778
-0.243818 -0.710193 -0.660438
-0.654382 -0.268042 -0.707063
0.788622 0.527746 -0.315531
0.358078 -0.531718 0.7675
-0.821883 -0.0454032 0.567844
0.167049 -0.964134 -0.206253
0.43469 0.315461 0.843522
-0.122194 -0.990957 0.0554388
0.715935 -0.695095 0.0654171
0.996354 0.0547744 -0.0654141
-0.281518 -0.839125 0.46542
-0.745788 0.662447 -0.0704592
-0.751183 -0.597223 0.281156
-0.405429 0.248376 0.879737
-0.541909 0.647106 -0.536273
-0.261172 -0.313244 0.913054
-0.521883 0.181845 -0.833409
-0.190927 -0.88739 -0.419626
-0.475544 0.0133105 0.879591
-0.198434 -0.707797 -0.677973
0.642773 0.634626 0.429059
-0.867683 0.496603 -0.0226367
-0.224968 -0.9404 -0.255025
0.527622 0.0119572 -0.849395
-0.602454 -0.485958 -0.633162
-0.199713 0.913946 -0.353296
-0.276037 0.289015 -0.916665
0.0509777 0.225818 0.972835
-0.362557 0.230455 -0.903019
-0.8847 -0.417786 -0.206784
-0.298055 0.55848 -0.774121
0.667531 -0.688825 0.282705
-0.421084 0.550023 -0.721224
-0.99655 -0.0376968 0.0739389
-0.159799 0.675197 -0.72012
-0.209953 -0.0648631 -0.975557
0.267657 0.90292 -0.336296
0.410772 -0.266369 -0.87196
0.238108 0.126026 -0.963027
-0.00911067 0.255309 -0.966817
0.756804 -0.64788 0.0865984
ITEM: TIMESTEP
7080
ITEM: NUMBER OF ATOMS
54
ITEM: BOX BOUNDS pp pp pp
0.0000000000000000e+00 8.6303750400000006e+00
0.0000000000000000e+00 8.6303750400000006e+00
0.0000000000000000e+00 8.6303750400000006e+00
ITEM: ATOMS c_outsp[1] c_outsp[2] c_outsp[3]
0.945495 0.157293 0.285128
-0.602861 -0.46453 -0.648669
0.62616 0.722789 -0.292405
-0.342283 0.643984 -0.684198
0.527692 -0.360778 -0.769012
-0.631989 -0.578534 0.515644
0.92311 -0.00695131 0.384474
0.183838 0.132301 -0.974012
0.244124 -0.676113 -0.695179
0.714724 -0.127368 0.687712
0.786685 0.604666 -0.124525
0.929454 0.315921 0.190549
0.891896 0.181459 0.414239
-0.272421 -0.702125 -0.657881
-0.639492 -0.262066 -0.722753
0.790768 0.537504 -0.292875
0.348101 -0.515844 0.782771
-0.841779 0.00954322 0.539737
0.130625 -0.967467 -0.216668
0.412302 0.297733 0.861024
-0.194076 -0.978793 0.0655647
0.697542 -0.714035 0.0599133
0.998289 -0.00110094 -0.0584632
-0.294748 -0.830737 0.472229
-0.737668 0.671914 -0.0661653
-0.753286 -0.604714 0.258614
-0.426671 0.232492 0.874013
-0.498671 0.699314 -0.51214
-0.282833 -0.310814 0.907414
-0.495898 0.223628 -0.839092
-0.175408 -0.889025 -0.422926