ITEM: TIMESTEP
0
ITEM: NUMBER OF ATOMS
54
ITEM: BOX BOUNDS pp pp pp
0.0000000000000000e+00 8.6303750400000006e+00
0.0000000000000000e+00 8.6303750400000006e+00
0.0000000000000000e+00 8.6303750400000006e+00
ITEM: ATOMS type x y z c_outsp[1] c_outsp[2] c_outsp[3]
1 0 0 0 0.601604 0.795089 -0.0768528
1 0 0 2.87679 0.632622 -0.48477 -0.603976
1 0 2.87679 0 0.80507 0.193026 -0.560896
1 2.87679 0 0 -0.50291 -0.616191 -0.606127
1 1.4384 1.4384 1.4384 -0.180365 -0.30508 -0.935091
1 0 2.87679 2.87679 0.388238 -0.921297 0.0219835
1 2.87679 0 2.87679 -0.841505 0.189122 -0.506065
1 2.87679 2.87679 0 0.608884 -0.756096 -0.239956
1 2.87679 2.87679 2.87679 0.90069 0.00408149 0.434443
1 5.75358 0 0 0.307666 0.770317 -0.558528
1 4.31519 1.4384 1.4384 -0.531281 -0.306764 -0.789707
1 5.75358 0 2.87679 0.418236 -0.773787 0.475744
1 5.75358 2.87679 0 0.595244 -0.771511 -0.224622
1 7.19198 1.4384 1.4384 0.329698 0.713747 0.617952
1 5.75358 2.87679 2.87679 -0.259981 0.689588 -0.675928
1 0 5.75358 0 -0.815582 0.54267 -0.200839
1 1.4384 4.31519 1.4384 -0.762805 -0.63421 -0.126124
1 0 5.75358 2.87679 0.615155 0.268092 0.741425
1 2.87679 5.75358 0 0.281024 0.959656 0.00927919
1 1.4384 7.19198 1.4384 0.691019 0.259459 -0.674666
1 2.87679 5.75358 2.87679 -0.588104 -0.564173 -0.579519
1 4.31519 4.31519 1.4384 -0.706982 -0.522268 -0.476878
1 5.75358 5.75358 0 0.475318 0.659128 -0.582771
1 4.31519 7.19198 1.4384 -0.487167 0.856029 0.172866
1 7.19198 4.31519 1.4384 0.188374 -0.691922 -0.696964
1 5.75358 5.75358 2.87679 0.839941 0.132058 -0.526364
1 7.19198 7.19198 1.4384 0.154905 -0.116711 -0.981011
1 0 0 5.75358 0.0798551 0.864964 -0.495439
1 1.4384 1.4384 4.31519 -0.798488 0.475379 0.369366
1 0 2.87679 5.75358 -0.906197 -0.419582 0.0525136
1 2.87679 0 5.75358 0.629887 0.647594 0.428793
1 1.4384 1.4384 7.19198 0.613823 -0.750026 0.246339
1 2.87679 2.87679 5.75358 0.561539 0.523047 0.641167
1 4.31519 1.4384 4.31519 0.470989 -0.444044 0.76223
1 5.75358 0 5.75358 -0.691002 -0.716201 -0.0978384
1 4.31519 1.4384 7.19198 -0.231951 -0.412474 -0.880945
1 7.19198 1.4384 4.31519 -0.595287 0.448768 0.666514
1 5.75358 2.87679 5.75358 -0.192917 -0.443042 0.875498
1 7.19198 1.4384 7.19198 0.00337377 -0.196119 -0.980574
1 1.4384 4.31519 4.31519 -0.725791 -0.643469 -0.243259
1 0 5.75358 5.75358 0.931673 0.360916 0.0415217
1 1.4384 4.31519 7.19198 0.385046 -0.670099 -0.634592
1 1.4384 7.19198 4.31519 0.299445 0.520753 0.799468
1 2.87679 5.75358 5.75358 -0.0250968 0.962692 0.269435
1 1.4384 7.19198 7.19198 0.591458 0.763488 -0.25935
1 4.31519 4.31519 4.31519 -0.383006 0.155826 -0.910508
1 4.31519 4.31519 7.19198 -0.565662 -0.660448 -0.493797
1 4.31519 7.19198 4.31519 -0.723772 -0.685618 -0.0779868
1 7.19198 4.31519 4.31519 -0.67723 -0.732277 -0.0716179
1 5.75358 5.75358 5.75358 -0.613215 -0.773083 0.162203
1 4.31519 7.19198 7.19198 0.219894 0.929128 -0.297267
1 7.19198 4.31519 7.19198 -0.756226 0.619678 -0.21005
1 7.19198 7.19198 4.31519 0.741396 -0.669481 0.0461265
1 7.19198 7.19198 7.19198 -0.399573 -0.603626 -0.689911
ITEM: TIMESTEP
100
ITEM: NUMBER OF ATOMS
54
ITEM: BOX BOUNDS pp pp pp
0.0000000000000000e+00 8.6303750400000006e+00
0.0000000000000000e+00 8.6303750400000006e+00
0.0000000000000000e+00 8.6303750400000006e+00
ITEM: ATOMS type x y z c_outsp[1] c_outsp[2] c_outsp[3]
1 0.889854 8.63038 2.17795e-13 0.856076 -0.458818 -0.237949
1 0.222463 8.92958e-14 2.87679 0.481354 -0.161944 -0.861436
1 0.222463 2.87679 8.1897e-14 0.68291 -0.690475 0.238493
1 3.76665 8.63038 5.48548e-14 -0.626448 0.771488 -0.111218
1 1.88332 1.4384 1.4384 0.422103 0.092271 -0.90184
1 8.18545 2.87679 2.87679 0.00603752 -0.738401 0.674335
1 3.09926 6.67088e-14 2.87679 -0.706247 0.444687 -0.55088
1 3.09926 2.87679 8.63038 -0.673916 -0.732844 0.0936824
1 2.43186 2.87679 2.87679 0.548409 -0.0867092 0.831703
1 6.64344 8.63038 6.15502e-14 0.78314 0.0150095 -0.621664
1 4.76011 1.4384 1.4384 -0.328704 -0.0559728 -0.942773
1 5.97605 1.16547e-13 2.87679 0.170408 -0.890101 0.422708
1 5.97605 2.87679 8.63038 -0.772517 -0.629987 -0.0795797
1 7.63691 1.4384 1.4384 -0.0860755 -0.377716 0.921912
1 5.30866 2.87679 2.87679 0.47342 0.38225 -0.793573
1 0.222463 5.75358 2.70118e-14 0.496892 0.837948 0.225701
1 1.21593 4.31519 1.4384 -0.648475 -0.120322 -0.751667
1 8.18545 5.75358 2.87679 -0.146183 -0.215469 0.965507
1 3.09926 5.75358 8.63038 0.889224 -0.0469224 -0.455058
1 1.88332 7.19198 1.4384 0.163538 -0.0334911 -0.985968
1 2.43186 5.75358 2.87679 -0.837401 -0.164744 -0.521171
1 4.09272 4.31519 1.4384 -0.370088 0.425242 -0.825956
1 5.97605 5.75358 8.63038 0.241913 -0.187275 -0.952054
1 4.76011 7.19198 1.4384 0.71714 0.604578 0.346693
1 6.96952 4.31519 1.4384 0.143897 -0.451572 -0.880555
1 5.30866 5.75358 2.87679 0.685155 -0.718777 0.117997
1 7.63691 7.19198 1.4384 0.172304 0.842202 -0.510888
1 0.222463 8.63038 5.75358 0.164837 0.900999 -0.401284
1 1.21593 1.4384 4.31519 -0.813424 0.15766 0.559897
1 8.18545 2.87679 5.75358 -0.994419 -0.0158414 -0.10431
1 3.09926 8.63038 5.75358 0.735466 0.616698 0.280667
1 1.88332 1.4384 7.19198 0.18062 -0.927574 -0.327083
1 2.43186 2.87679 5.75358 0.109932 0.647776 0.753857
1 4.09272 1.4384 4.31519 0.692039 -0.0417811 0.72065
1 5.97605 1.30908e-17 5.75358 -0.873227 -0.457218 -0.168601
1 4.76011 1.4384 7.19198 0.0863888 -0.621452 -0.778675
1 6.96952 1.4384 4.31519 -0.904428 0.423933 -0.0478669
1 5.30866 2.87679 5.75358 -0.485786 0.709997 0.50982
1 7.63691 1.4384 7.19198 0.0307888 -0.3113 -0.949813
1 0.548542 4.31519 4.31519 -0.209751 -0.908171 -0.362256
1 8.18545 5.75358 5.75358 0.994955 0.0999316 -0.00889523
1 1.21593 4.31519 7.19198 0.0144943 -0.395463 -0.918367
1 1.21593 7.19198 4.31519 0.760493 0.0565599 0.646878
1 2.43186 5.75358 5.75358 0.565879 0.739702 0.364172
1 1.88332 7.19198 7.19198 0.568571 0.814062 -0.118453
1 3.42533 4.31519 4.31519 -0.19811 -0.223155 -0.954439
1 4.09272 4.31519 7.19198 -0.805705 -0.397912 -0.438755
1 4.09272 7.19198 4.31519 -0.696811 -0.704859 -0.132774
1 6.30213 4.31519 4.31519 -0.637561 -0.747566 -0.186176
1 5.30866 5.75358 5.75358 -0.998242 0.00446452 0.0591083
1 4.76011 7.19198 7.19198 0.581971 0.439382 -0.684291
1 6.96952 4.31519 7.19198 0.0200391 0.672069 -0.740217
1 6.96952 7.19198 4.31519 0.659268 -0.627684 0.413979
1 7.63691 7.19198 7.19198 -0.886167 0.462544 0.0275669
ITEM: TIMESTEP
200
ITEM: NUMBER OF ATOMS
54
ITEM: BOX BOUNDS pp pp pp
0.0000000000000000e+00 8.6303750400000006e+00
0.0000000000000000e+00 8.6303750400000006e+00
0.0000000000000000e+00 8.6303750400000006e+00
ITEM: ATOMS type x y z c_outsp[1] c_outsp[2] c_outsp[3]
1 1.73692 8.63038 4.25116e-13 0.210282 -0.526821 -0.823554
1 0.434229 1.74297e-13 2.87679 0.462537 0.0102062 -0.886541
1 0.434229 2.87679 1.59856e-13 -0.664436 -0.483578 0.569805
1 4.61371 8.63038 1.07072e-13 0.454888 0.70091 0.549365
1 2.30685 1.4384 1.4384 0.664766 -0.327913 -0.671237
1 7.76192 2.87679 2.87679 -0.783254 -0.0462541 0.619979
1 3.31102 1.3021e-13 2.87679 -0.33636 0.919435 -0.203718
1 3.31102 2.87679 8.63038 -0.824688 0.516253 -0.231025
1 2.00833 2.87679 2.87679 0.324458 -0.329776 0.886552
1 7.4905 8.63038 1.20141e-13 0.708131 -0.413921 -0.572031
1 5.18365 1.4384 1.4384 -0.333776 0.10663 -0.936602
1 6.18781 2.27488e-13 2.87679 -0.0588615 -0.922465 0.381567
1 6.18781 2.87679 8.63038 -0.495524 0.577895 -0.648454
1 8.06044 1.4384 1.4384 -0.923151 -0.188151 0.335247
1 4.88513 2.87679 2.87679 0.783159 -0.317144 -0.534865
1 0.434229 5.75358 5.27247e-14 0.978949 -0.201679 0.0313649
1 1.00417 4.31519 1.4384 -0.127188 0.0405153 -0.991051
1 7.76192 5.75358 2.87679 -0.720621 -0.573053 0.390276
1 3.31102 5.75358 8.63038 -0.0909598 -0.492186 -0.865725
1 2.30685 7.19198 1.4384 0.0914274 0.51742 -0.850833
1 2.00833 5.75358 2.87679 -0.340111 0.597286 -0.726343
1 3.88096 4.31519 1.4384 0.576745 0.118238 -0.808323
1 6.18781 5.75358 8.63038 0.0271895 0.391253 -0.919881
1 5.18365 7.19198 1.4384 0.815804 -0.266164 0.513439
1 6.75775 4.31519 1.4384 0.213151 -0.812995 -0.541854
1 4.88513 5.75358 2.87679 -0.078 -0.887557 0.454046
1 8.06044 7.19198 1.4384 0.456264 0.819323 0.347178
1 0.434229 8.63038 5.75358 0.0806444 0.975798 -0.203259
1 1.00417 1.4384 4.31519 -0.493603 -0.147463 0.857095
1 7.76192 2.87679 5.75358 -0.659878 0.51849 -0.54381
1 3.31102 8.63038 5.75358 0.773707 0.402704 0.489087
1 2.30685 1.4384 7.19198 -0.0562061 -0.808926 -0.585217
1 2.00833 2.87679 5.75358 0.164945 0.833207 0.527788
1 3.88096 1.4384 4.31519 0.957885 -0.0828242 0.274947
1 6.18781 2.55521e-17 5.75358 -0.92869 -0.116181 -0.35219
1 5.18365 1.4384 7.19198 -0.6286 -0.76581 -0.135635
1 6.75775 1.4384 4.31519 -0.78055 0.0550629 -0.622663
1 4.88513 2.87679 5.75358 0.191286 0.862414 -0.46867
1 8.06044 1.4384 7.19198 -0.14727 -0.828324 -0.540547
1 8.33185 4.31519 4.31519 0.195733 -0.980041 0.0347626
1 7.76192 5.75358 5.75358 0.992265 0.0915682 0.0838138
1 1.00417 4.31519 7.19198 -0.0891062 0.0920057 -0.991764
1 1.00417 7.19198 4.31519 0.917754 -0.374393 0.132508
1 2.00833 5.75358 5.75358 0.881165 0.095734 0.463015
1 2.30685 7.19198 7.19198 0.884341 0.214244 0.414778
1 2.57827 4.31519 4.31519 -0.349109 -0.240644 -0.905656
1 3.88096 4.31519 7.19198 -0.870564 0.491426 0.0248989
1 3.88096 7.19198 4.31519 -0.666008 -0.714448 -0.21447
1 5.45506 4.31519 4.31519 -0.854287 -0.47965 -0.200321
1 4.88513 5.75358 5.75358 -0.634059 0.622892 -0.45823
1 5.18365 7.19198 7.19198 0.31845 -0.0844928 -0.944167
1 6.75775 4.31519 7.19198 0.101429 -0.10231 -0.989568
1 6.75775 7.19198 4.31519 0.320933 -0.271341 0.907401
1 8.06044 7.19198 7.19198 -0.213441 0.235521 0.948142
ITEM: TIMESTEP
300
ITEM: NUMBER OF ATOMS
54
ITEM: BOX BOUNDS pp pp pp
0.0000000000000000e+00 8.6303750400000006e+00
0.0000000000000000e+00 8.6303750400000006e+00
0.0000000000000000e+00 8.6303750400000006e+00
ITEM: ATOMS type x y z c_outsp[1] c_outsp[2] c_outsp[3]
1 2.50045 8.63038 6.11994e-13 0.247637 0.055716 -0.967249
1 0.625113 2.50917e-13 2.87679 0.316695 0.28333 -0.905223
1 0.625113 2.87679 2.30127e-13 -0.554708 0.809754 0.191306
1 5.37724 8.63038 1.5414e-13 0.65069 0.000841247 0.759343
1 2.68862 1.4384 1.4384 0.0814334 -0.599048 -0.796562
1 7.38015 2.87679 2.87679 -0.708095 0.421038 -0.566858
1 3.5019 1.87449e-13 2.87679 0.0808421 0.853715 0.514427
1 3.5019 2.87679 8.63038 0.34806 0.885182 -0.308719
1 1.62657 2.87679 2.87679 -0.169728 -0.411968 0.895251
1 8.25404 8.63038 1.72954e-13 0.920278 -0.300975 -0.250004
1 5.56541 1.4384 1.4384 -0.014522 0.332379 -0.943034
1 6.3787 3.27491e-13 2.87679 -0.153187 -0.748757 0.644901
1 6.3787 2.87679 8.63038 0.0299368 -0.102987 -0.994232
1 8.44221 1.4384 1.4384 -0.899471 0.435837 0.031604
1 4.50336 2.87679 2.87679 0.177131 -0.965079 -0.192995
1 0.625113 5.75358 7.59021e-14 0.620656 -0.727576 -0.292267
1 0.813283 4.31519 1.4384 0.0402053 -0.170244 -0.984581
1 7.38015 5.75358 2.87679 -0.374575 -0.884246 -0.27893
1 3.5019 5.75358 8.63038 -0.491253 0.63663 -0.594451
1 2.68862 7.19198 1.4384 0.552913 0.612988 -0.564388
1 1.62657 5.75358 2.87679 0.694043 0.637227 -0.335032
1 3.69007 4.31519 1.4384 0.363273 -0.64727 -0.67013
1 6.3787 5.75358 8.63038 0.784731 0.365017 -0.500959
1 5.56541 7.19198 1.4384 0.672753 -0.439391 0.595263
1 6.56687 4.31519 1.4384 -0.636391 -0.728212 -0.25439
1 4.50336 5.75358 2.87679 -0.837626 -0.453069 0.305142
1 8.44221 7.19198 1.4384 0.276448 -0.00527757 0.961014
1 0.625113 8.63038 5.75358 -0.281744 0.959376 0.014742
1 0.813283 1.4384 4.31519 -0.0634041 -0.252657 0.965476
1 7.38015 2.87679 5.75358 -0.0107756 0.0492134 -0.99873
1 3.5019 8.63038 5.75358 0.543652 -0.012346 0.83922
1 2.68862 1.4384 7.19198 -0.545698 -0.555793 -0.627142
1 1.62657 2.87679 5.75358 0.572168 0.741011 0.351464
1 3.69007 1.4384 4.31519 0.962111 -0.21128 0.172348
1 6.3787 3.67847e-17 5.75358 -0.774301 -0.345892 -0.529921
1 5.56541 1.4384 7.19198 -0.923252 0.296323 0.244537
1 6.56687 1.4384 4.31519 -0.59736 -0.328626 -0.73155
1 4.50336 2.87679 5.75358 0.320812 0.143483 -0.936212
1 8.44221 1.4384 7.19198 -0.70744 -0.663311 0.244024
1 7.56832 4.31519 4.31519 -0.265002 -0.782461 0.563497
1 7.38015 5.75358 5.75358 0.834434 0.0198962 0.550749
1 0.813283 4.31519 7.19198 -0.163552 0.478617 -0.862657
1 0.813283 7.19198 4.31519 0.831535 -0.322134 -0.452525
1 1.62657 5.75358 5.75358 0.745651 -0.648167 0.154547
1 2.68862 7.19198 7.19198 0.704371 -0.640837 0.305268
1 1.81474 4.31519 4.31519 -0.440194 0.205299 -0.874118
1 3.69007 4.31519 7.19198 0.593417 0.803707 0.0437191
1 3.69007 7.19198 4.31519 -0.580045 -0.768268 -0.270763
1 4.69153 4.31519 4.31519 -0.809764 0.228635 -0.540378
1 4.50336 5.75358 5.75358 -0.136838 0.630955 -0.763656
1 5.56541 7.19198 7.19198 -0.0268145 0.0430937 -0.998711
1 6.56687 4.31519 7.19198 -0.427973 0.35549 -0.830943
1 6.56687 7.19198 4.31519 -0.57416 0.191049 0.796141
1 8.44221 7.19198 7.19198 -0.398027 -0.740006 0.542185
ITEM: TIMESTEP
400
ITEM: NUMBER OF ATOMS
54
ITEM: BOX BOUNDS pp pp pp
0.0000000000000000e+00 8.6303750400000006e+00
0.0000000000000000e+00 8.6303750400000006e+00
0.0000000000000000e+00 8.6303750400000006e+00
ITEM: ATOMS type x y z c_outsp[1] c_outsp[2] c_outsp[3]
1 3.14375 8.63038 7.69442e-13 0.532137 0.237213 -0.812748
1 0.785936 3.15471e-13 2.87679 0.0180695 0.625364 -0.780124
1 0.785936 2.87679 2.89332e-13 0.154842 0.96942 -0.190392
1 6.02054 8.63038 1.93795e-13 0.521433 -0.661936 0.538468
1 3.01027 1.4384 1.4384 -0.503297 -0.179741 -0.845213
1 7.0585 2.87679 2.87679 0.00561804 -0.421875 -0.906637
1 3.66273 2.35674e-13 2.87679 0.109531 0.538612 0.835404
1 3.66273 2.87679 8.63038 0.912977 -0.349223 -0.210988
1 1.30492 2.87679 2.87679 -0.272241 -0.091992 0.957822
1 0.266954 8.63038 2.17449e-13 0.992887 0.0630137 0.101015
1 5.88706 1.4384 1.4384 0.542778 -0.0547033 -0.838093
1 6.53952 4.11745e-13 2.87679 -0.482586 -0.375155 0.791435
1 6.53952 2.87679 8.63038 -0.830706 -0.0387199 -0.555363
1 0.133477 1.4384 1.4384 -0.592919 0.78662 0.172265
1 4.18171 2.87679 2.87679 -0.827939 -0.534516 -0.169736
1 0.785936 5.75358 9.54295e-14 0.23472 -0.835027 -0.49763
1 0.652459 4.31519 1.4384 0.0288163 -0.147997 -0.988568
1 7.0585 5.75358 2.87679 0.114221 -0.978304 0.172843
1 3.66273 5.75358 8.63038 0.33531 0.793476 0.507901
1 3.01027 7.19198 1.4384 0.641446 0.617053 -0.455842
1 1.30492 5.75358 2.87679 0.911057 -0.286794 0.296184
1 3.52925 4.31519 1.4384 -0.220346 -0.781851 -0.58323
1 6.53952 5.75358 8.63038 0.943143 -0.167462 -0.287118
1 5.88706 7.19198 1.4384 0.559173 -0.350267 0.751424
1 6.40604 4.31519 1.4384 -0.596605 0.20367 -0.776261
1 4.18171 5.75358 2.87679 -0.956534 0.290837 -0.0213665
1 0.133477 7.19198 1.4384 -0.461081 -0.815959 0.348734
1 0.785936 8.63038 5.75358 -0.480658 0.835619 -0.265911
1 0.652459 1.4384 4.31519 0.440364 -0.31637 0.840232
1 7.0585 2.87679 5.75358 -0.220041 -0.665817 -0.71293
1 3.66273 8.63038 5.75358 0.108736 -0.0728648 0.991397
1 3.01027 1.4384 7.19198 -0.899264 0.198867 -0.389585
1 1.30492 2.87679 5.75358 0.859176 0.510045 -0.0408765
1 3.52925 1.4384 4.31519 0.896819 -0.0174134 0.442055
1 6.53952 4.62483e-17 5.75358 -0.869009 -0.493891 -0.0299158
1 5.88706 1.4384 7.19198 -0.13845 0.954916 -0.262615
1 6.40604 1.4384 4.31519 -0.333094 -0.628326 -0.703033
1 4.18171 2.87679 5.75358 0.00789642 0.262231 -0.964973
1 0.133477 1.4384 7.19198 -0.462293 -0.260145 0.847709
1 6.92503 4.31519 4.31519 -0.896625 0.029947 0.441777
1 7.0585 5.75358 5.75358 0.668892 -0.0607193 0.740876
1 0.652459 4.31519 7.19198 0.255341 0.860668 -0.440513
1 0.652459 7.19198 4.31519 0.789266 -0.408174 -0.458753
1 1.30492 5.75358 5.75358 -0.0410608 -0.935996 -0.349609
1 3.01027 7.19198 7.19198 0.0765966 -0.992003 -0.100312
1 1.17144 4.31519 4.31519 -0.430843 0.651868 -0.624053
1 3.52925 4.31519 7.19198 0.790581 -0.177222 -0.586152
1 3.52925 7.19198 4.31519 -0.424485 -0.85663 -0.293251
1 4.04823 4.31519 4.31519 -0.268654 0.344582 -0.899493
1 4.18171 5.75358 5.75358 0.4271 0.488765 -0.76072
1 5.88706 7.19198 7.19198 0.0211656 0.457767 -0.88882
1 6.40604 4.31519 7.19198 0.258214 0.778176 -0.57251
1 6.40604 7.19198 4.31519 -0.951745 0.176304 -0.251195
1 0.133477 7.19198 7.19198 -0.597859 -0.697995 -0.394168
ITEM: TIMESTEP
500
ITEM: NUMBER OF ATOMS
54
ITEM: BOX BOUNDS pp pp pp
0.0000000000000000e+00 8.6303750400000006e+00
0.0000000000000000e+00 8.6303750400000006e+00
0.0000000000000000e+00 8.6303750400000006e+00
ITEM: ATOMS type x y z c_outsp[1] c_outsp[2] c_outsp[3]
1 3.63586 8.63038 8.89889e-13 0.562572 0.106902 -0.819808
1 0.908965 3.64854e-13 2.87679 -0.169134 0.730912 -0.661182
1 0.908965 2.87679 3.34624e-13 0.298849 0.949836 -0.0922007
1 6.51265 8.63038 2.24132e-13 0.171379 -0.984935 -0.0230592
1 3.25633 1.4384 1.4384 -0.715961 0.190743 -0.671578
1 6.81244 2.87679 2.87679 -0.289776 -0.900062 -0.32545
1 3.78576 2.72566e-13 2.87679 0.395365 0.432793 0.810171
1 3.78576 2.87679 8.63038 -0.226162 -0.970437 0.0842728
1 1.05886 2.87679 2.87679 0.202807 -0.0328828 0.978666
1 0.759069 8.63038 2.51489e-13 0.970395 -0.119832 0.209698
1 6.13312 1.4384 1.4384 0.72033 -0.641812 -0.263063
1 6.66255 4.76198e-13 2.87679 -0.991537 -0.122437 -0.0431765
1 6.66255 2.87679 8.63038 -0.270381 0.952441 0.140537
1 0.379535 1.4384 1.4384 -0.390082 0.743385 0.543337
1 3.93565 2.87679 2.87679 -0.828663 0.368369 -0.421453
1 0.908965 5.75358 1.10368e-13 -0.256117 -0.593165 -0.763256
1 0.529431 4.31519 1.4384 0.188762 -0.0955654 -0.977362
1 6.81244 5.75358 2.87679 -0.360952 -0.64534 0.673239
1 3.78576 5.75358 8.63038 0.162619 -0.21372 0.963265
1 3.25633 7.19198 1.4384 0.673369 0.630922 -0.385373
1 1.05886 5.75358 2.87679 0.0225509 -0.684069 0.729069
1 3.40622 4.31519 1.4384 -0.647161 -0.653094 -0.393255
1 6.66255 5.75358 8.63038 0.739875 -0.426663 -0.520138
1 6.13312 7.19198 1.4384 -0.0665803 -0.447687 0.891708
1 6.28301 4.31519 1.4384 0.169739 0.278348 -0.945363
1 3.93565 5.75358 2.87679 -0.492275 0.729086 -0.475498
1 0.379535 7.19198 1.4384 -0.632188 -0.576269 -0.517931
1 0.908965 8.63038 5.75358 -0.351669 0.863877 -0.360617
1 0.529431 1.4384 4.31519 0.79125 -0.432234 0.432548
1 6.81244 2.87679 5.75358 -0.828732 -0.403185 -0.388131
1 3.78576 8.63038 5.75358 0.0570988 0.0923487 0.994088
1 3.25633 1.4384 7.19198 -0.594109 0.797505 0.104975
1 1.05886 2.87679 5.75358 0.764888 0.512567 -0.390156
1 3.40622 1.4384 4.31519 0.981896 0.151544 0.113639
1 6.66255 5.34879e-17 5.75358 -0.990321 0.111322 -0.0828995
1 6.13312 1.4384 7.19198 0.482982 0.573086 -0.662043
1 6.28301 1.4384 4.31519 -0.361677 -0.928711 -0.0817673
1 3.93565 2.87679 5.75358 0.165295 0.496435 -0.852191
1 0.379535 1.4384 7.19198 0.387263 -0.54998 0.739966
1 6.43291 4.31519 4.31519 -0.649727 0.645063 -0.40218
1 6.81244 5.75358 5.75358 0.504109 -0.489677 0.711401
1 0.529431 4.31519 7.19198 0.958051 0.188934 -0.215506
1 0.529431 7.19198 4.31519 0.483509 -0.864254 0.138867
1 1.05886 5.75358 5.75358 -0.594646 -0.224573 -0.771987
1 3.25633 7.19198 7.19198 -0.435879 -0.683257 -0.585807
1 0.679327 4.31519 4.31519 -0.231127 0.900581 -0.368148
1 3.40622 4.31519 7.19198 0.546862 -0.273032 -0.791451
1 3.40622 7.19198 4.31519 -0.502308 -0.786158 -0.360058
1 3.55612 4.31519 4.31519 -0.312181 0.211743 -0.926125
1 3.93565 5.75358 5.75358 0.796298 -0.397865 -0.455646
1 6.13312 7.19198 7.19198 0.491643 0.776825 -0.393485
1 6.28301 4.31519 7.19198 0.726283 0.532618 -0.434548
1 6.28301 7.19198 4.31519 -0.373616 -0.609118 -0.699561
1 0.379535 7.19198 7.19198 -0.45308 -0.198237 -0.86915
ITEM: TIMESTEP
600
ITEM: NUMBER OF ATOMS
54
ITEM: BOX BOUNDS pp pp pp
0.0000000000000000e+00 8.6303750400000006e+00
0.0000000000000000e+00 8.6303750400000006e+00
0.0000000000000000e+00 8.6303750400000006e+00
ITEM: ATOMS type x y z c_outsp[1] c_outsp[2] c_outsp[3]
1 3.95313 8.63038 9.67542e-13 0.445379 -0.016921 -0.895182
1 0.988283 3.96692e-13 2.87679 -0.177231 0.776077 -0.605222
1 0.988283 2.87679 3.63823e-13 0.338639 0.773492 0.535755
1 6.82992 8.63038 2.4369e-13 -0.0414033 -0.809835 -0.585195
1 3.41496 1.4384 1.4384 -0.860703 0.321451 -0.394791
1 6.65381 2.87679 2.87679 -0.6857 -0.717218 -0.124155
1 3.86507 2.96351e-13 2.87679 0.685644 -0.134321 0.715437
1 3.86507 2.87679 8.63038 -0.605586 -0.528427 0.595005
1 0.900225 2.87679 2.87679 0.696875 -0.287441 0.657072
1 1.07634 8.63038 2.73434e-13 0.60297 -0.74511 0.285025
1 6.29175 1.4384 1.4384 0.376712 -0.757863 0.532664
1 6.74187 5.17752e-13 2.87679 -0.14423 -0.653993 -0.742624
1 6.74187 2.87679 8.63038 0.264305 0.336336 0.903892
1 0.538171 1.4384 1.4384 -0.417651 0.276492 0.865517
1 3.77702 2.87679 2.87679 -0.338432 0.661123 -0.669612
1 0.988283 5.75358 1.19999e-13 -0.189045 -0.0352247 -0.981336
1 0.450113 4.31519 1.4384 0.191854 -0.137373 -0.971762
1 6.65381 5.75358 2.87679 -0.928447 0.157405 0.336466
1 3.86507 5.75358 8.63038 -0.663641 -0.0593093 0.745696
1 3.41496 7.19198 1.4384 0.866618 0.222585 -0.446575
1 0.900225 5.75358 2.87679 -0.451985 0.00519762 0.892011
1 3.3269 4.31519 1.4384 -0.9759 -0.215568 0.0338995
1 6.74187 5.75358 8.63038 0.643462 -0.322473 -0.69424
1 6.29175 7.19198 1.4384 -0.917584 -0.0626109 0.39258
1 6.2037 4.31519 1.4384 0.563611 -0.0436706 -0.824885
1 3.77702 5.75358 2.87679 0.0991317 0.396138 -0.912824
1 0.538171 7.19198 1.4384 -0.559042 -0.414271 -0.718228
1 0.988283 8.63038 5.75358 0.0910445 0.994314 0.0552406
1 0.450113 1.4384 4.31519 0.836039 -0.489682 -0.247486
1 6.65381 2.87679 5.75358 -0.893657 0.434301 -0.112964
1 3.86507 8.63038 5.75358 0.219522 -0.0300485 0.975145
1 3.41496 1.4384 7.19198 -0.0753429 0.817591 0.570848
1 0.900225 2.87679 5.75358 0.924536 0.344889 -0.162125
1 3.3269 1.4384 4.31519 0.808909 0.104607 -0.578552
1 6.74187 5.81554e-17 5.75358 -0.688768 0.49252 -0.531998
1 6.29175 1.4384 7.19198 0.512976 0.238938 -0.824478
1 6.2037 1.4384 4.31519 -0.95022 -0.227908 0.212459
1 3.77702 2.87679 5.75358 0.256372 0.582909 -0.771032
1 0.538171 1.4384 7.19198 0.492938 -0.779477 -0.386558
1 6.11564 4.31519 4.31519 -0.0474017 0.0907807 -0.994742
1 6.65381 5.75358 5.75358 -0.147537 -0.858694 0.490793
1 0.450113 4.31519 7.19198 0.364064 -0.543525 -0.756332
1 0.450113 7.19198 4.31519 0.0335941 -0.643209 0.764953
1 0.900225 5.75358 5.75358 -0.255542 0.370296 -0.893073
1 3.41496 7.19198 7.19198 -0.366617 -0.248422 -0.896593
1 0.362055 4.31519 4.31519 -0.0510327 0.986342 -0.156608
1 3.3269 4.31519 7.19198 0.605967 -0.593724 -0.529431
1 3.3269 7.19198 4.31519 -0.552645 -0.481085 -0.680544
1 3.23885 4.31519 4.31519 -0.13318 0.55356 -0.822091
1 3.77702 5.75358 5.75358 -0.179844 -0.975465 -0.126979
1 6.29175 7.19198 7.19198 0.86447 0.347621 0.363114
1 6.2037 4.31519 7.19198 0.942008 0.305906 -0.137993
1 6.2037 7.19198 4.31519 0.0369764 -0.995191 0.0907033
1 0.538171 7.19198 7.19198 -0.0662633 0.237117 -0.969219
ITEM: TIMESTEP
700
ITEM: NUMBER OF ATOMS
54
ITEM: BOX BOUNDS pp pp pp
0.0000000000000000e+00 8.6303750400000006e+00
0.0000000000000000e+00 8.6303750400000006e+00
0.0000000000000000e+00 8.6303750400000006e+00
ITEM: ATOMS type x y z c_outsp[1] c_outsp[2] c_outsp[3]
1 4.0803 8.63038 9.98668e-13 0.602875 -0.0673195 -0.794991
1 1.02008 4.09454e-13 2.87679 0.0382134 0.83991 -0.541379
1 1.02008 2.87679 3.75528e-13 0.265341 0.58324 0.767741
1 6.9571 8.63038 2.51529e-13 0.0873356 -0.682671 -0.725488
1 3.47855 1.4384 1.4384 -0.879085 0.203468 -0.431057
1 6.59022 2.87679 2.87679 -0.837712 -0.480646 -0.259266
1 3.89687 3.05884e-13 2.87679 0.0141987 -0.69317 0.720634
1 3.89687 2.87679 8.63038 -0.302321 -0.309831 0.901447
1 0.836639 2.87679 2.87679 0.689534 -0.705421 0.164084
1 1.20351 8.63038 2.8223e-13 -0.349999 -0.873402 0.33863
1 6.35534 1.4384 1.4384 -0.46301 -0.355775 0.811817
1 6.77366 5.34408e-13 2.87679 0.349929 -0.880622 0.319461
1 6.77366 2.87679 8.63038 -0.134273 -0.383235 0.913839
1 0.601757 1.4384 1.4384 -0.750028 0.0125955 0.661286
1 3.71343 2.87679 2.87679 0.0443084 0.429747 -0.901862
1 1.02008 5.75358 1.23859e-13 -0.0396937 -0.0831081 -0.99575
1 0.41832 4.31519 1.4384 0.0503382 -0.0812157 -0.995425
1 6.59022 5.75358 2.87679 -0.538323 0.686792 -0.488391
1 3.89687 5.75358 8.63038 -0.668111 0.651555 0.35931
1 3.47855 7.19198 1.4384 0.742554 -0.619332 -0.255031
1 0.836639 5.75358 2.87679 0.0494023 0.385559 0.92136
1 3.29511 4.31519 1.4384 -0.848935 0.485912 0.207842
1 6.77366 5.75358 8.63038 0.607377 -0.343498 -0.716312
1 6.35534 7.19198 1.4384 -0.649846 0.656308 -0.383353
1 6.1719 4.31519 1.4384 0.658801 -0.589848 -0.46697
1 3.71343 5.75358 2.87679 0.110085 -0.232545 -0.966335
1 0.601757 7.19198 1.4384 -0.637513 -0.229058 -0.735601
1 1.02008 8.63038 5.75358 0.675601 0.246296 0.694911
1 0.41832 1.4384 4.31519 0.566735 -0.168998 -0.806381
1 6.59022 2.87679 5.75358 -0.157508 0.986339 0.048241
1 3.89687 8.63038 5.75358 0.243426 -0.326501 0.913313
1 3.47855 1.4384 7.19198 0.153462 0.384052 0.910469
1 0.836639 2.87679 5.75358 0.680492 -0.396636 -0.616126
1 3.29511 1.4384 4.31519 0.453362 0.228238 -0.861609
1 6.77366 6.00262e-17 5.75358 -0.414565 0.557309 -0.719404
1 6.35534 1.4384 7.19198 0.310007 0.123769 -0.942643
1 6.1719 1.4384 4.31519 -0.869402 0.466136 -0.163881
1 3.71343 2.87679 5.75358 0.471779 0.702989 -0.532194
1 0.601757 1.4384 7.19198 0.368011 -0.142545 -0.91883
1 5.98847 4.31519 4.31519 -0.317519 -0.71001 -0.628544
1 6.59022 5.75358 5.75358 -0.474839 -0.864877 0.162834
1 0.41832 4.31519 7.19198 -0.23431 0.244085 -0.941022
1 0.41832 7.19198 4.31519 0.382901 -0.584053 0.71573
1 0.836639 5.75358 5.75358 0.018265 0.62773 -0.778217
1 3.47855 7.19198 7.19198 -0.112945 -0.173067 -0.978413
1 0.234883 4.31519 4.31519 0.409332 0.869917 0.275122
1 3.29511 4.31519 7.19198 0.352333 -0.911554 -0.21197
1 3.29511 7.19198 4.31519 -0.204819 -0.198868 -0.958384
1 3.11167 4.31519 4.31519 0.376353 0.30047 -0.876399
1 3.71343 5.75358 5.75358 -0.923465 -0.0148342 -0.383396
1 6.35534 7.19198 7.19198 0.438947 -0.368042 0.819677
1 6.1719 4.31519 7.19198 0.934836 0.115798 0.335666
1 6.1719 7.19198 4.31519 -0.409808 -0.556291 0.722909
1 0.601757 7.19198 7.19198 0.471877 0.258698 -0.842857
ITEM: TIMESTEP
800
ITEM: NUMBER OF ATOMS
54
ITEM: BOX BOUNDS pp pp pp
0.0000000000000000e+00 8.6303750400000006e+00
0.0000000000000000e+00 8.6303750400000006e+00
0.0000000000000000e+00 8.6303750400000006e+00
ITEM: ATOMS type x y z c_outsp[1] c_outsp[2] c_outsp[3]
1 4.01126 8.63038 9.81769e-13 0.951635 -0.224132 -0.210133
1 1.00282 4.02525e-13 2.87679 0.447357 0.775864 -0.444868
1 1.00282 2.87679 3.69173e-13 0.685005 0.528889 0.501044
1 6.88805 8.63038 2.47273e-13 -0.0494033 -0.881489 -0.469614
1 3.44403 1.4384 1.4384 -0.740626 -0.113103 -0.66233
1 6.62474 2.87679 2.87679 -0.820817 -0.447607 -0.354836
1 3.87961 3.00708e-13 2.87679 -0.815992 -0.212045 0.537768
1 3.87961 2.87679 8.63038 -0.151991 -0.148535 0.977157
1 0.871161 2.87679 2.87679 0.0229084 -0.965068 -0.260997
1 1.13447 8.63038 2.77455e-13 -0.96075 -0.142033 0.238296
1 6.32082 1.4384 1.4384 -0.977846 0.00193981 0.209316
1 6.7564 5.25365e-13 2.87679 0.558999 -0.124534 0.819763
1 6.7564 2.87679 8.63038 -0.488052 -0.573819 0.657675
1 0.567235 1.4384 1.4384 -0.826152 0.349755 0.441752
1 3.74795 2.87679 2.87679 0.0949957 -0.159671 -0.982589
1 1.00282 5.75358 1.21763e-13 -0.394364 0.212634 -0.894016
1 0.435581 4.31519 1.4384 0.0231128 0.0549936 -0.998219
1 6.62474 5.75358 2.87679 0.168563 0.498612 -0.850278
1 3.87961 5.75358 8.63038 -0.121564 0.974333 0.189465
1 3.44403 7.19198 1.4384 -0.0100452 -0.984948 0.172558
1 0.871161 5.75358 2.87679 0.234147 -0.159253 0.959069
1 3.31237 4.31519 1.4384 -0.315787 0.948376 0.029344
1 6.7564 5.75358 8.63038 0.686133 -0.362063 -0.630978
1 6.32082 7.19198 1.4384 0.107645 0.883868 -0.455182
1 6.18916 4.31519 1.4384 0.236056 -0.969826 0.0609554
1 3.74795 5.75358 2.87679 -0.24925 -0.406945 -0.878789
1 0.567235 7.19198 1.4384 -0.647104 0.0130848 -0.762289
1 1.00282 8.63038 5.75358 -0.00904324 -0.94885 0.315598
1 0.435581 1.4384 4.31519 0.652796 0.0227706 -0.757191
1 6.62474 2.87679 5.75358 0.624046 0.775753 -0.0936672
1 3.87961 8.63038 5.75358 -0.100122 -0.587753 0.802821
1 3.44403 1.4384 7.19198 -0.0641497 -0.289937 0.954893
1 0.871161 2.87679 5.75358 -0.0837203 0.432135 -0.897914
1 3.31237 1.4384 4.31519 0.591179 0.226935 -0.773956
1 6.7564 5.90105e-17 5.75358 -0.161346 0.388689 -0.907132
1 6.32082 1.4384 7.19198 0.246489 0.107316 -0.963186
1 6.18916 1.4384 4.31519 -0.639073 0.70764 -0.301384
1 3.74795 2.87679 5.75358 0.872044 0.447114 -0.19907
1 0.567235 1.4384 7.19198 0.465857 0.0681427 -0.882233
1 6.05751 4.31519 4.31519 -0.837151 -0.461725 -0.293239
1 6.62474 5.75358 5.75358 -0.315533 -0.934401 0.165331
1 0.435581 4.31519 7.19198 0.139442 0.884591 -0.445034
1 0.435581 7.19198 4.31519 0.510297 -0.859363 0.0330474
1 0.871161 5.75358 5.75358 0.52704 0.835052 -0.157854
1 3.44403 7.19198 7.19198 0.0189082 -0.0461376 -0.998756
1 0.303927 4.31519 4.31519 0.81063 0.0707519 0.581268
1 3.31237 4.31519 7.19198 -0.08393 -0.949502 -0.302327
1 3.31237 7.19198 4.31519 0.226975 -0.318373 -0.920392
1 3.18072 4.31519 4.31519 0.214096 0.00317513 -0.976807
1 3.74795 5.75358 5.75358 0.0289748 0.797076 -0.603184
1 6.32082 7.19198 7.19198 -0.526551 -0.459957 0.714971
1 6.18916 4.31519 7.19198 0.644239 -0.00394022 0.764814
1 6.18916 7.19198 4.31519 -0.748934 0.0435264 0.661213
1 0.567235 7.19198 7.19198 0.749719 -0.298063 -0.59083
ITEM: TIMESTEP
900
ITEM: NUMBER OF ATOMS
54
ITEM: BOX BOUNDS pp pp pp
0.0000000000000000e+00 8.6303750400000006e+00
0.0000000000000000e+00 8.6303750400000006e+00
0.0000000000000000e+00 8.6303750400000006e+00
ITEM: ATOMS type x y z c_outsp[1] c_outsp[2] c_outsp[3]
1 3.74932 8.63038 9.17658e-13 0.837477 0.00606475 0.546439
1 0.93733 3.7624e-13 2.87679 0.908984 0.228184 -0.348826
1 0.93733 2.87679 3.45066e-13 0.971565 -0.0509392 -0.23123
1 6.62611 8.63038 2.31126e-13 -0.613568 -0.780643 -0.118873
1 3.31306 1.4384 1.4384 -0.597566 -0.526852 -0.604435
1 6.75571 2.87679 2.87679 -0.93649 -0.242733 -0.253115
1 3.81412 2.81072e-13 2.87679 -0.834981 0.548843 -0.0397273
1 3.81412 2.87679 8.63038 -0.489244 0.0652861 0.8697
1 1.00213 2.87679 2.87679 -0.673622 -0.479454 -0.562456
1 0.87253 8.63038 2.59336e-13 -0.675302 0.737184 0.0229646
1 6.18985 1.4384 1.4384 -0.917856 -0.0768285 -0.389406
1 6.69091 4.91059e-13 2.87679 0.984376 -0.0797426 0.156989
1 6.69091 2.87679 8.63038 -0.786179 -0.51046 0.348358