ITEM: TIMESTEP
0
ITEM: NUMBER OF ATOMS
54
ITEM: BOX BOUNDS pp pp pp
0.0000000000000000e+00 8.6303750400000006e+00
0.0000000000000000e+00 8.6303750400000006e+00
0.0000000000000000e+00 8.6303750400000006e+00
ITEM: ATOMS type x y z c_outsp[1] c_outsp[2] c_outsp[3]
1 0 0 0 0.601604 0.795089 -0.0768528
1 0 0 2.87679 0.632622 -0.48477 -0.603976
1 0 2.87679 0 0.80507 0.193026 -0.560896
1 2.87679 0 0 -0.50291 -0.616191 -0.606127
1 1.4384 1.4384 1.4384 -0.180365 -0.30508 -0.935091
1 0 2.87679 2.87679 0.388238 -0.921297 0.0219835
1 2.87679 0 2.87679 -0.841505 0.189122 -0.506065
1 2.87679 2.87679 0 0.608884 -0.756096 -0.239956
1 2.87679 2.87679 2.87679 0.90069 0.00408149 0.434443
1 5.75358 0 0 0.307666 0.770317 -0.558528
1 4.31519 1.4384 1.4384 -0.531281 -0.306764 -0.789707
1 5.75358 0 2.87679 0.418236 -0.773787 0.475744
1 5.75358 2.87679 0 0.595244 -0.771511 -0.224622
1 7.19198 1.4384 1.4384 0.329698 0.713747 0.617952
1 5.75358 2.87679 2.87679 -0.259981 0.689588 -0.675928
1 0 5.75358 0 -0.815582 0.54267 -0.200839
1 1.4384 4.31519 1.4384 -0.762805 -0.63421 -0.126124
1 0 5.75358 2.87679 0.615155 0.268092 0.741425
1 2.87679 5.75358 0 0.281024 0.959656 0.00927919
1 1.4384 7.19198 1.4384 0.691019 0.259459 -0.674666
1 2.87679 5.75358 2.87679 -0.588104 -0.564173 -0.579519
1 4.31519 4.31519 1.4384 -0.706982 -0.522268 -0.476878
1 5.75358 5.75358 0 0.475318 0.659128 -0.582771
1 4.31519 7.19198 1.4384 -0.487167 0.856029 0.172866
1 7.19198 4.31519 1.4384 0.188374 -0.691922 -0.696964
1 5.75358 5.75358 2.87679 0.839941 0.132058 -0.526364
1 7.19198 7.19198 1.4384 0.154905 -0.116711 -0.981011
1 0 0 5.75358 0.0798551 0.864964 -0.495439
1 1.4384 1.4384 4.31519 -0.798488 0.475379 0.369366
1 0 2.87679 5.75358 -0.906197 -0.419582 0.0525136
1 2.87679 0 5.75358 0.629887 0.647594 0.428793
1 1.4384 1.4384 7.19198 0.613823 -0.750026 0.246339
1 2.87679 2.87679 5.75358 0.561539 0.523047 0.641167
1 4.31519 1.4384 4.31519 0.470989 -0.444044 0.76223
1 5.75358 0 5.75358 -0.691002 -0.716201 -0.0978384
1 4.31519 1.4384 7.19198 -0.231951 -0.412474 -0.880945
1 7.19198 1.4384 4.31519 -0.595287 0.448768 0.666514
1 5.75358 2.87679 5.75358 -0.192917 -0.443042 0.875498
1 7.19198 1.4384 7.19198 0.00337377 -0.196119 -0.980574
1 1.4384 4.31519 4.31519 -0.725791 -0.643469 -0.243259
1 0 5.75358 5.75358 0.931673 0.360916 0.0415217
1 1.4384 4.31519 7.19198 0.385046 -0.670099 -0.634592
1 1.4384 7.19198 4.31519 0.299445 0.520753 0.799468
1 2.87679 5.75358 5.75358 -0.0250968 0.962692 0.269435
1 1.4384 7.19198 7.19198 0.591458 0.763488 -0.25935
1 4.31519 4.31519 4.31519 -0.383006 0.155826 -0.910508
1 4.31519 4.31519 7.19198 -0.565662 -0.660448 -0.493797
1 4.31519 7.19198 4.31519 -0.723772 -0.685618 -0.0779868
1 7.19198 4.31519 4.31519 -0.67723 -0.732277 -0.0716179
1 5.75358 5.75358 5.75358 -0.613215 -0.773083 0.162203
1 4.31519 7.19198 7.19198 0.219894 0.929128 -0.297267
1 7.19198 4.31519 7.19198 -0.756226 0.619678 -0.21005
1 7.19198 7.19198 4.31519 0.741396 -0.669481 0.0461265
1 7.19198 7.19198 7.19198 -0.399573 -0.603626 -0.689911
ITEM: TIMESTEP
100
ITEM: NUMBER OF ATOMS
54
ITEM: BOX BOUNDS pp pp pp
0.0000000000000000e+00 8.6303750400000006e+00
0.0000000000000000e+00 8.6303750400000006e+00
0.0000000000000000e+00 8.6303750400000006e+00
ITEM: ATOMS type x y z c_outsp[1] c_outsp[2] c_outsp[3]
1 0 0 0 0.875111 -0.414399 -0.249909
1 0 0 2.87679 0.503348 -0.164971 -0.84819
1 0 2.87679 0 0.671744 -0.706349 0.223229
1 2.87679 0 0 -0.588994 0.799567 -0.11738
1 1.4384 1.4384 1.4384 0.459002 0.00257886 -0.888432
1 0 2.87679 2.87679 -0.120413 -0.741931 0.659575
1 2.87679 0 2.87679 -0.768635 0.405035 -0.495123
1 2.87679 2.87679 0 -0.686771 -0.722422 0.0803276
1 2.87679 2.87679 2.87679 0.51925 -0.0269903 0.854196
1 5.75358 0 0 0.775336 0.00830317 -0.631494
1 4.31519 1.4384 1.4384 -0.306847 -0.0230785 -0.951479
1 5.75358 0 2.87679 0.178364 -0.897478 0.403385
1 5.75358 2.87679 0 -0.764061 -0.644427 -0.0304197
1 7.19198 1.4384 1.4384 -0.0166959 -0.392087 0.919777
1 5.75358 2.87679 2.87679 0.401086 0.457717 -0.793489
1 0 5.75358 0 0.516057 0.799639 0.307023
1 1.4384 4.31519 1.4384 -0.588741 -0.141097 -0.795912
1 0 5.75358 2.87679 -0.172336 -0.205045 0.963461
1 2.87679 5.75358 0 0.891771 -0.0444143 -0.450303
1 1.4384 7.19198 1.4384 0.160768 0.0298897 -0.986539
1 2.87679 5.75358 2.87679 -0.846063 -0.233947 -0.479006
1 4.31519 4.31519 1.4384 -0.343953 0.379478 -0.85889
1 5.75358 5.75358 0 0.238026 -0.287124 -0.927849
1 4.31519 7.19198 1.4384 0.766981 0.584565 0.264621
1 7.19198 4.31519 1.4384 0.0988902 -0.408753 -0.907271
1 5.75358 5.75358 2.87679 0.585778 -0.803836 0.103503
1 7.19198 7.19198 1.4384 0.291626 0.863643 -0.411188
1 0 0 5.75358 0.20011 0.914748 -0.350987
1 1.4384 1.4384 4.31519 -0.839802 0.179794 0.512257
1 0 2.87679 5.75358 -0.974068 -0.119867 -0.191896
1 2.87679 0 5.75358 0.741558 0.645099 0.184225
1 1.4384 1.4384 7.19198 0.0710916 -0.984277 -0.161691
1 2.87679 2.87679 5.75358 0.127026 0.657952 0.742269
1 4.31519 1.4384 4.31519 0.630895 -0.00824229 0.775825
1 5.75358 0 5.75358 -0.867634 -0.473292 -0.152333
1 4.31519 1.4384 7.19198 0.0477501 -0.479812 -0.876071
1 7.19198 1.4384 4.31519 -0.862498 0.499551 0.0809066
1 5.75358 2.87679 5.75358 -0.381752 0.748987 0.541557
1 7.19198 1.4384 7.19198 0.0581965 -0.321108 -0.945253
1 1.4384 4.31519 4.31519 -0.246152 -0.909181 -0.335856
1 0 5.75358 5.75358 0.995677 0.0849151 -0.0376281
1 1.4384 4.31519 7.19198 0.0742244 -0.423223 -0.90298
1 1.4384 7.19198 4.31519 0.753664 0.0822509 0.652094
1 2.87679 5.75358 5.75358 0.576054 0.740711 0.345702
1 1.4384 7.19198 7.19198 0.583045 0.794304 -0.170702
1 4.31519 4.31519 4.31519 -0.165084 -0.26547 -0.94988
1 4.31519 4.31519 7.19198 -0.829637 -0.341361 -0.441787
1 4.31519 7.19198 4.31519 -0.683146 -0.712312 -0.161007
1 7.19198 4.31519 4.31519 -0.580444 -0.786721 -0.21013
1 5.75358 5.75358 5.75358 -0.996517 0.0566107 0.061231
1 4.31519 7.19198 7.19198 0.555864 0.563125 -0.611479
1 7.19198 4.31519 7.19198 -0.0401565 0.682577 -0.729709
1 7.19198 7.19198 4.31519 0.622491 -0.700595 0.348813
1 7.19198 7.19198 7.19198 -0.900408 0.422709 -0.102873
ITEM: TIMESTEP
200
ITEM: NUMBER OF ATOMS
54
ITEM: BOX BOUNDS pp pp pp
0.0000000000000000e+00 8.6303750400000006e+00
0.0000000000000000e+00 8.6303750400000006e+00
0.0000000000000000e+00 8.6303750400000006e+00
ITEM: ATOMS type x y z c_outsp[1] c_outsp[2] c_outsp[3]
1 0 0 0 0.488856 -0.508978 -0.708492
1 0 0 2.87679 0.518559 -0.027179 -0.85461
1 0 2.87679 0 -0.783079 -0.511852 0.353262
1 2.87679 0 0 0.5876 0.519889 0.620033
1 1.4384 1.4384 1.4384 0.69296 -0.423341 -0.5836
1 0 2.87679 2.87679 -0.877544 -0.096164 0.469754
1 2.87679 0 2.87679 -0.647647 0.748374 -0.143143
1 2.87679 2.87679 0 -0.777331 0.54986 -0.305631
1 2.87679 2.87679 2.87679 0.321036 -0.177408 0.930302
1 5.75358 0 0 0.618728 -0.566758 -0.544023
1 4.31519 1.4384 1.4384 -0.24522 0.155483 -0.956918
1 5.75358 0 2.87679 0.00703824 -0.960902 0.276798
1 5.75358 2.87679 0 -0.524975 0.712286 -0.465886
1 7.19198 1.4384 1.4384 -0.937097 -0.147061 0.31658
1 5.75358 2.87679 2.87679 0.826985 -0.199463 -0.525652
1 0 5.75358 0 0.866462 -0.464058 0.184102
1 1.4384 4.31519 1.4384 0.0630568 -0.187475 -0.980243
1 0 5.75358 2.87679 -0.880091 -0.290704 0.375409
1 2.87679 5.75358 0 -0.0633988 -0.404189 -0.912476
1 1.4384 7.19198 1.4384 0.0842786 0.663966 -0.742998
1 2.87679 5.75358 2.87679 -0.301314 0.488734 -0.818749
1 4.31519 4.31519 1.4384 0.387027 -0.114872 -0.914885
1 5.75358 5.75358 0 -0.356799 0.184164 -0.915848
1 4.31519 7.19198 1.4384 0.719617 -0.563013 0.40641
1 7.19198 4.31519 1.4384 0.467804 -0.673059 -0.572845
1 5.75358 5.75358 2.87679 -0.306047 -0.935764 0.175157
1 7.19198 7.19198 1.4384 0.401386 0.639556 0.655635
1 0 0 5.75358 0.258465 0.946699 -0.192244
1 1.4384 1.4384 4.31519 -0.550108 -0.00773498 0.835058
1 0 2.87679 5.75358 -0.723672 0.156597 -0.672142
1 2.87679 0 5.75358 0.702208 0.676424 0.22216
1 1.4384 1.4384 7.19198 -0.343044 -0.926176 -0.156586
1 2.87679 2.87679 5.75358 0.0775938 0.869466 0.487861
1 4.31519 1.4384 4.31519 0.870183 0.13892 0.472739
1 5.75358 0 5.75358 -0.988882 -0.0837533 -0.12287
1 4.31519 1.4384 7.19198 -0.584988 -0.629579 -0.511292
1 7.19198 1.4384 4.31519 -0.755912 0.572683 -0.317225
1 5.75358 2.87679 5.75358 0.569367 0.70971 -0.414889
1 7.19198 1.4384 7.19198 -0.299736 -0.792916 -0.530512
1 1.4384 4.31519 4.31519 0.100753 -0.990907 -0.0891718
1 0 5.75358 5.75358 0.999066 -0.0404537 -0.0151921
1 1.4384 4.31519 7.19198 0.141132 -0.150445 -0.978493
1 1.4384 7.19198 4.31519 0.934608 -0.301166 0.189225
1 2.87679 5.75358 5.75358 0.854841 -0.0784466 0.512926
1 1.4384 7.19198 7.19198 0.892547 0.287097 0.347758
1 4.31519 4.31519 4.31519 -0.32257 -0.317761 -0.891615
1 4.31519 4.31519 7.19198 -0.788392 0.613519 0.0450766
1 4.31519 7.19198 4.31519 -0.64686 -0.69442 -0.315203
1 7.19198 4.31519 4.31519 -0.749654 -0.641533 -0.162648
1 5.75358 5.75358 5.75358 -0.674549 0.66857 -0.313045
1 4.31519 7.19198 7.19198 0.559184 0.323329 -0.763395
1 7.19198 4.31519 7.19198 0.232991 0.0722255 -0.969793
1 7.19198 7.19198 4.31519 0.484482 -0.509011 0.711466
1 7.19198 7.19198 7.19198 -0.199919 0.738917 0.643455
ITEM: TIMESTEP
300
ITEM: NUMBER OF ATOMS
54
ITEM: BOX BOUNDS pp pp pp
0.0000000000000000e+00 8.6303750400000006e+00
0.0000000000000000e+00 8.6303750400000006e+00
0.0000000000000000e+00 8.6303750400000006e+00
ITEM: ATOMS type x y z c_outsp[1] c_outsp[2] c_outsp[3]
1 0 0 0 0.593659 -0.292914 -0.749513
1 0 0 2.87679 0.213539 -0.0235263 -0.976651
1 0 2.87679 0 -0.435795 0.734653 -0.519968
1 2.87679 0 0 0.486077 -0.424977 0.763626
1 1.4384 1.4384 1.4384 0.281555 -0.847341 -0.450266
1 0 2.87679 2.87679 -0.760108 0.430318 -0.486891
1 2.87679 0 2.87679 -0.659582 0.669843 0.340972
1 2.87679 2.87679 0 0.255562 0.824869 -0.504261
1 2.87679 2.87679 2.87679 -0.180063 -0.453541 0.872856
1 5.75358 0 0 0.44231 -0.872581 -0.207278
1 4.31519 1.4384 1.4384 0.141834 0.484604 -0.863158
1 5.75358 0 2.87679 -0.102847 -0.870711 0.480921
1 5.75358 2.87679 0 0.48775 0.266237 -0.831395
1 7.19198 1.4384 1.4384 -0.61392 0.757214 -0.223
1 5.75358 2.87679 2.87679 0.279574 -0.960119 0.00316404
1 0 5.75358 0 0.23782 -0.951059 -0.197302
1 1.4384 4.31519 1.4384 -0.133176 -0.595023 -0.792598
1 0 5.75358 2.87679 -0.890966 -0.0173113 -0.45374
1 2.87679 5.75358 0 -0.02113 0.728447 -0.684777
1 1.4384 7.19198 1.4384 0.734516 0.670935 -0.101653
1 2.87679 5.75358 2.87679 0.848798 0.237147 -0.472549
1 4.31519 4.31519 1.4384 -0.0690157 -0.346759 -0.935412
1 5.75358 5.75358 0 -0.0176699 0.663041 -0.748374
1 4.31519 7.19198 1.4384 -0.00135035 -0.912039 0.410101
1 7.19198 4.31519 1.4384 -0.301557 -0.901921 0.309197
1 5.75358 5.75358 2.87679 -0.728941 -0.677995 -0.0947022
1 7.19198 7.19198 1.4384 -0.22641 0.472416 0.851799
1 0 0 5.75358 0.012435 0.997225 0.0734011
1 1.4384 1.4384 4.31519 0.0189148 0.00780033 0.999791
1 0 2.87679 5.75358 -0.440376 -0.157215 -0.883941
1 2.87679 0 5.75358 0.432607 0.719807 0.54289
1 1.4384 1.4384 7.19198 -0.60405 -0.790396 0.101971
1 2.87679 2.87679 5.75358 0.164656 0.854883 0.492
1 4.31519 1.4384 4.31519 0.914295 0.264371 0.306875
1 5.75358 0 5.75358 -0.994441 0.0758306 -0.073048
1 4.31519 1.4384 7.19198 -0.982998 -0.176337 -0.0511882
1 7.19198 1.4384 4.31519 -0.380656 0.612109 -0.693126
1 5.75358 2.87679 5.75358 0.421641 -0.543398 -0.725904
1 7.19198 1.4384 7.19198 -0.997874 -0.0647925 -0.00704298
1 1.4384 4.31519 4.31519 -0.189012 -0.981859 0.0150898
1 0 5.75358 5.75358 0.853176 -0.366123 0.371543
1 1.4384 4.31519 7.19198 0.189719 -0.0306524 -0.98136
1 1.4384 7.19198 4.31519 0.909266 -0.243657 -0.337442
1 2.87679 5.75358 5.75358 0.353144 -0.935503 -0.0111341
1 1.4384 7.19198 7.19198 0.89125 -0.41457 0.183862
1 4.31519 4.31519 4.31519 -0.102844 0.110509 -0.98854
1 4.31519 4.31519 7.19198 0.806835 0.575241 0.134589
1 4.31519 7.19198 4.31519 -0.662227 -0.604551 -0.442689
1 7.19198 4.31519 4.31519 -0.874049 0.0205182 -0.485405
1 5.75358 5.75358 5.75358 -0.13572 0.869857 -0.474267
1 4.31519 7.19198 7.19198 0.494271 0.335569 -0.801929
1 7.19198 4.31519 7.19198 -0.148091 -0.103387 -0.983555
1 7.19198 7.19198 4.31519 0.401342 -0.0962022 0.910862
1 7.19198 7.19198 7.19198 0.188299 0.292936 0.937407
ITEM: TIMESTEP
400
ITEM: NUMBER OF ATOMS
54
ITEM: BOX BOUNDS pp pp pp
0.0000000000000000e+00 8.6303750400000006e+00
0.0000000000000000e+00 8.6303750400000006e+00
0.0000000000000000e+00 8.6303750400000006e+00
ITEM: ATOMS type x y z c_outsp[1] c_outsp[2] c_outsp[3]
1 0 0 0 0.678486 -0.131583 -0.722732
1 0 0 2.87679 -0.346316 0.224159 -0.910943
1 0 2.87679 0 0.5233 0.0101887 -0.852088
1 2.87679 0 0 0.0404931 -0.884057 0.465621
1 1.4384 1.4384 1.4384 -0.381664 -0.75266 -0.536503
1 0 2.87679 2.87679 -0.252075 0.0253833 -0.967375
1 2.87679 0 2.87679 -0.914856 0.206776 0.346817
1 2.87679 2.87679 0 0.973508 0.0877805 -0.211134
1 2.87679 2.87679 2.87679 -0.609077 -0.308633 0.730597
1 5.75358 0 0 0.295885 -0.94782 -0.118698
1 4.31519 1.4384 1.4384 0.691368 0.528497 -0.492647
1 5.75358 0 2.87679 -0.134424 -0.619812 0.773151
1 5.75358 2.87679 0 0.0531394 -0.397295 -0.916151
1 7.19198 1.4384 1.4384 0.541606 0.76433 -0.349946
1 5.75358 2.87679 2.87679 -0.750343 -0.524905 0.401822
1 0 5.75358 0 -0.305238 -0.749855 -0.586982
1 1.4384 4.31519 1.4384 -0.454491 -0.096744 -0.885482
1 0 5.75358 2.87679 -0.603311 0.0739995 -0.794066
1 2.87679 5.75358 0 0.815 0.297081 0.497512
1 1.4384 7.19198 1.4384 0.833348 0.0562331 0.549881
1 2.87679 5.75358 2.87679 0.693338 -0.629374 0.350957
1 4.31519 4.31519 1.4384 0.0836646 0.087599 -0.992636
1 5.75358 5.75358 0 0.474092 0.672484 -0.568333
1 4.31519 7.19198 1.4384 -0.164968 -0.978512 0.123693
1 7.19198 4.31519 1.4384 -0.637597 0.627042 0.447535
1 5.75358 5.75358 2.87679 -0.913146 -0.401245 -0.071883
1 7.19198 7.19198 1.4384 -0.457075 0.68702 0.564877
1 0 0 5.75358 -0.239346 0.902903 0.357043
1 1.4384 1.4384 4.31519 0.521695 0.422303 0.741279
1 0 2.87679 5.75358 -0.738105 -0.134277 -0.661189
1 2.87679 0 5.75358 0.252943 0.723337 0.642497
1 1.4384 1.4384 7.19198 -0.697236 -0.68855 0.1994
1 2.87679 2.87679 5.75358 0.21815 0.741463 0.634542
1 4.31519 1.4384 4.31519 0.628289 0.776718 -0.0442865
1 5.75358 0 5.75358 -0.939729 0.0652006 0.335646
1 4.31519 1.4384 7.19198 -0.998852 0.0464812 -0.0115562
1 7.19198 1.4384 4.31519 -0.262472 0.0218627 -0.964692
1 5.75358 2.87679 5.75358 -0.751657 -0.54694 -0.368603
1 7.19198 1.4384 7.19198 -0.403732 0.878536 -0.255294
1 1.4384 4.31519 4.31519 -0.806158 -0.57228 -0.150349
1 0 5.75358 5.75358 0.184375 -0.911962 0.366511
1 1.4384 4.31519 7.19198 0.6151 0.0442042 -0.787209
1 1.4384 7.19198 4.31519 0.928516 -0.0939552 -0.359208
1 2.87679 5.75358 5.75358 -0.212712 -0.245949 -0.945655
1 1.4384 7.19198 7.19198 0.860002 -0.499129 -0.106144
1 4.31519 4.31519 4.31519 0.607522 -0.118875 -0.785357
1 4.31519 4.31519 7.19198 0.461807 -0.664429 -0.587595
1 4.31519 7.19198 4.31519 -0.589715 -0.604792 -0.535223
1 7.19198 4.31519 4.31519 -0.282538 0.0225744 -0.95899
1 5.75358 5.75358 5.75358 0.700023 0.651097 -0.293327
1 4.31519 7.19198 7.19198 0.620013 0.528318 -0.580055
1 7.19198 4.31519 7.19198 0.0624438 0.187093 -0.980356
1 7.19198 7.19198 4.31519 0.514435 0.348388 0.783571
1 7.19198 7.19198 7.19198 0.374276 -0.185481 0.908578
ITEM: TIMESTEP
500
ITEM: NUMBER OF ATOMS
54
ITEM: BOX BOUNDS pp pp pp
0.0000000000000000e+00 8.6303750400000006e+00
0.0000000000000000e+00 8.6303750400000006e+00
0.0000000000000000e+00 8.6303750400000006e+00
ITEM: ATOMS type x y z c_outsp[1] c_outsp[2] c_outsp[3]
1 0 0 0 0.863523 -0.13547 -0.485774
1 0 0 2.87679 -0.591023 0.541366 -0.598009
1 0 2.87679 0 -0.00634577 -0.319118 -0.947694
1 2.87679 0 0 -0.0830865 -0.995374 -0.0482477
1 1.4384 1.4384 1.4384 -0.485651 -0.361996 -0.795677
1 0 2.87679 2.87679 -0.526848 -0.104545 -0.843505
1 2.87679 0 2.87679 -0.996801 0.0756753 0.0257214
1 2.87679 2.87679 0 0.456391 -0.851621 0.257778
1 2.87679 2.87679 2.87679 -0.598355 0.11938 0.792287
1 5.75358 0 0 0.148992 -0.789698 -0.595129
1 4.31519 1.4384 1.4384 0.911748 0.410038 -0.024185
1 5.75358 0 2.87679 -0.144087 -0.294036 0.944871
1 5.75358 2.87679 0 -0.483202 0.469279 -0.739116
1 7.19198 1.4384 1.4384 0.907843 -0.271535 -0.319516
1 5.75358 2.87679 2.87679 -0.676897 0.412444 0.609672
1 0 5.75358 0 -0.365264 0.174115 -0.914476
1 1.4384 4.31519 1.4384 0.271061 -0.0276409 -0.962165
1 0 5.75358 2.87679 -0.650751 0.112872 -0.750855
1 2.87679 5.75358 0 0.0264721 -0.932474 0.360265
1 1.4384 7.19198 1.4384 0.119704 -0.0977937 0.987981
1 2.87679 5.75358 2.87679 -0.355491 -0.700816 0.618452
1 4.31519 4.31519 1.4384 0.566071 0.163241 -0.808032
1 5.75358 5.75358 0 0.906421 0.335084 -0.257136
1 4.31519 7.19198 1.4384 0.179476 -0.982904 0.0410875
1 7.19198 4.31519 1.4384 0.861227 0.491328 -0.129941
1 5.75358 5.75358 2.87679 -0.98249 -0.0275146 -0.184272
1 7.19198 7.19198 1.4384 -0.203799 0.810006 0.549869
1 0 0 5.75358 -0.157348 0.678004 0.71802
1 1.4384 1.4384 4.31519 0.835572 0.496452 -0.235276
1 0 2.87679 5.75358 -0.486537 0.408977 -0.772023
1 2.87679 0 5.75358 0.529247 0.569843 0.628631
1 1.4384 1.4384 7.19198 -0.860822 -0.504362 -0.0678553
1 2.87679 2.87679 5.75358 0.70161 0.531696 0.474388
1 4.31519 1.4384 4.31519 -0.163621 0.534528 -0.829161
1 5.75358 0 5.75358 -0.672347 0.145509 0.725794
1 4.31519 1.4384 7.19198 -0.968985 0.246766 0.0132392
1 7.19198 1.4384 4.31519 -0.795838 -0.547107 -0.259453
1 5.75358 2.87679 5.75358 -0.695688 0.684922 -0.216563
1 7.19198 1.4384 7.19198 0.444304 0.484787 -0.753376
1 1.4384 4.31519 4.31519 -0.898612 0.185157 -0.39776
1 0 5.75358 5.75358 -0.681153 -0.701442 -0.209784
1 1.4384 4.31519 7.19198 0.668905 -0.67082 -0.32026
1 1.4384 7.19198 4.31519 0.864794 -0.214506 -0.454003
1 2.87679 5.75358 5.75358 0.520176 0.653177 -0.550251
1 1.4384 7.19198 7.19198 0.904855 -0.425719 -0.00104117
1 4.31519 4.31519 4.31519 0.527654 -0.719936 -0.450858
1 4.31519 4.31519 7.19198 -0.193816 0.0753025 -0.978144
1 4.31519 7.19198 4.31519 -0.401603 -0.704276 -0.585414
1 7.19198 4.31519 4.31519 -0.477219 -0.635718 -0.606733
1 5.75358 5.75358 5.75358 0.976742 -0.20548 0.0612629
1 4.31519 7.19198 7.19198 0.768515 0.614195 0.179301
1 7.19198 4.31519 7.19198 0.25622 -0.19285 -0.947185
1 7.19198 7.19198 4.31519 0.45501 0.796842 0.397502
1 7.19198 7.19198 7.19198 0.331154 -0.786301 0.521601
ITEM: TIMESTEP
600
ITEM: NUMBER OF ATOMS
54
ITEM: BOX BOUNDS pp pp pp
0.0000000000000000e+00 8.6303750400000006e+00
0.0000000000000000e+00 8.6303750400000006e+00
0.0000000000000000e+00 8.6303750400000006e+00
ITEM: ATOMS type x y z c_outsp[1] c_outsp[2] c_outsp[3]
1 0 0 0 0.792136 -0.581354 -0.185871
1 0 0 2.87679 -0.541494 0.697127 -0.469891
1 0 2.87679 0 0.405945 -0.206133 -0.890347
1 2.87679 0 0 0.167416 -0.968877 -0.182343
1 1.4384 1.4384 1.4384 -0.321339 -0.2258 -0.91965
1 0 2.87679 2.87679 -0.297504 0.118907 -0.947287
1 2.87679 0 2.87679 -0.835558 0.358183 -0.416591
1 2.87679 2.87679 0 -0.607354 -0.76091 0.228336
1 2.87679 2.87679 2.87679 -0.25345 0.568929 0.782358
1 5.75358 0 0 0.447555 -0.0568438 -0.892448
1 4.31519 1.4384 1.4384 0.92776 0.370897 0.0411976
1 5.75358 0 2.87679 -0.11734 0.112045 0.986751
1 5.75358 2.87679 0 0.578732 0.814296 -0.0446297
1 7.19198 1.4384 1.4384 0.22086 -0.774532 -0.592724
1 5.75358 2.87679 2.87679 -0.298277 0.807669 0.508627
1 0 5.75358 0 0.619831 0.659246 -0.425682
1 1.4384 4.31519 1.4384 0.246238 -0.841454 -0.480959
1 0 5.75358 2.87679 -0.732762 0.319563 -0.600782
1 2.87679 5.75358 0 -0.0884741 -0.782508 -0.616323
1 1.4384 7.19198 1.4384 -0.352074 0.383263 0.853905
1 2.87679 5.75358 2.87679 -0.988053 -0.11108 0.106831
1 4.31519 4.31519 1.4384 0.80764 0.049188 -0.587621
1 5.75358 5.75358 0 0.955247 -0.292624 -0.0432943
1 4.31519 7.19198 1.4384 0.119031 -0.937602 0.326701
1 7.19198 4.31519 1.4384 0.363856 -0.733901 -0.573584
1 5.75358 5.75358 2.87679 -0.780989 0.275225 -0.560631
1 7.19198 7.19198 1.4384 0.231956 0.606832 0.760231
1 0 0 5.75358 0.0125687 0.400855 0.916055
1 1.4384 1.4384 4.31519 0.456784 -0.240326 -0.8565
1 0 2.87679 5.75358 0.0481906 0.00511493 -0.998825
1 2.87679 0 5.75358 0.581009 0.304432 0.754818
1 1.4384 1.4384 7.19198 -0.776159 0.163421 -0.608992
1 2.87679 2.87679 5.75358 0.95537 -0.172011 0.240168
1 4.31519 1.4384 4.31519 -0.770187 -0.234626 -0.593095
1 5.75358 0 5.75358 -0.618169 0.213237 0.75657
1 4.31519 1.4384 7.19198 -0.829567 0.423641 0.363795
1 7.19198 1.4384 4.31519 -0.642429 -0.0702917 0.763114
1 5.75358 2.87679 5.75358 0.0232854 0.722001 -0.6915
1 7.19198 1.4384 7.19198 0.388922 -0.1127 -0.914351
1 1.4384 4.31519 4.31519 -0.385592 0.660221 -0.644537
1 0 5.75358 5.75358 -0.797925 0.199454 -0.5688
1 1.4384 4.31519 7.19198 -0.431846 -0.818758 -0.378345
1 1.4384 7.19198 4.31519 0.473504 -0.605077 -0.640059
1 2.87679 5.75358 5.75358 0.84932 0.317081 0.422038
1 1.4384 7.19198 7.19198 0.855753 -0.488417 0.170692
1 4.31519 4.31519 4.31519 0.188105 -0.931574 -0.311104
1 4.31519 4.31519 7.19198 0.0776761 0.892823 -0.443658
1 4.31519 7.19198 4.31519 0.0255082 -0.852846 -0.521539
1 7.19198 4.31519 4.31519 -0.990358 0.12675 0.0559088
1 5.75358 5.75358 5.75358 0.563659 -0.799499 0.207583
1 4.31519 7.19198 7.19198 0.224354 0.0544772 0.972984
1 7.19198 4.31519 7.19198 -0.13604 0.108692 -0.984723
1 7.19198 7.19198 4.31519 0.275459 0.836855 -0.473071
1 7.19198 7.19198 7.19198 0.10925 -0.950755 -0.290049
ITEM: TIMESTEP
700
ITEM: NUMBER OF ATOMS
54
ITEM: BOX BOUNDS pp pp pp
0.0000000000000000e+00 8.6303750400000006e+00
0.0000000000000000e+00 8.6303750400000006e+00
0.0000000000000000e+00 8.6303750400000006e+00
ITEM: ATOMS type x y z c_outsp[1] c_outsp[2] c_outsp[3]
1 0 0 0 0.164702 -0.880833 -0.443853
1 0 0 2.87679 -0.166269 0.774312 -0.61057
1 0 2.87679 0 -0.326644 -0.776355 -0.539052
1 2.87679 0 0 0.230782 -0.964535 -0.128111
1 1.4384 1.4384 1.4384 -0.202896 -0.27578 -0.939563
1 0 2.87679 2.87679 -0.344238 -0.190017 -0.919453
1 2.87679 0 2.87679 -0.271165 0.464734 -0.842907
1 2.87679 2.87679 0 -0.997101 -0.0752102 -0.0115518
1 2.87679 2.87679 2.87679 0.236796 0.659991 0.71298
1 5.75358 0 0 0.880055 0.378752 -0.286443
1 4.31519 1.4384 1.4384 0.944779 0.323255 -0.0538481
1 5.75358 0 2.87679 0.0351829 0.240787 0.96994
1 5.75358 2.87679 0 0.942365 -0.324211 -0.0826802
1 7.19198 1.4384 1.4384 -0.331755 -0.211163 -0.919429
1 5.75358 2.87679 2.87679 0.242716 0.827622 0.506093
1 0 5.75358 0 0.95313 -0.0613261 0.296281
1 1.4384 4.31519 1.4384 -0.746361 -0.665016 -0.0264221
1 0 5.75358 2.87679 -0.540995 0.68213 -0.491959
1 2.87679 5.75358 0 0.561628 -0.534849 -0.631276
1 1.4384 7.19198 1.4384 -0.170438 0.730362 0.661455
1 2.87679 5.75358 2.87679 -0.64825 0.504732 -0.570103
1 4.31519 4.31519 1.4384 0.83703 -0.197158 -0.510401
1 5.75358 5.75358 0 0.703063 -0.693822 -0.155929
1 4.31519 7.19198 1.4384 -0.295417 -0.954667 0.0366069
1 7.19198 4.31519 1.4384 -0.484227 -0.277701 -0.829703
1 5.75358 5.75358 2.87679 -0.31755 0.555395 -0.768569
1 7.19198 7.19198 1.4384 0.558021 0.0144412 0.829701
1 0 0 5.75358 0.138586 0.219935 0.96562
1 1.4384 1.4384 4.31519 -0.189435 -0.588805 -0.785763
1 0 2.87679 5.75358 -0.583636 0.0260828 -0.811596
1 2.87679 0 5.75358 -0.173678 0.385214 0.906336
1 1.4384 1.4384 7.19198 0.188324 0.447414 -0.874274
1 2.87679 2.87679 5.75358 0.640026 -0.637053 0.42957
1 4.31519 1.4384 4.31519 -0.599286 -0.79181 -0.11787
1 5.75358 0 5.75358 -0.812334 0.291063 0.505366
1 4.31519 1.4384 7.19198 -0.769943 0.306211 0.559842
1 7.19198 1.4384 4.31519 0.210307 0.608819 0.764925
1 5.75358 2.87679 5.75358 -0.110863 0.467673 -0.876921
1 7.19198 1.4384 7.19198 0.227771 -0.155834 -0.961164
1 1.4384 4.31519 4.31519 0.106588 0.304272 -0.946603
1 0 5.75358 5.75358 -0.154868 0.843915 -0.513638
1 1.4384 4.31519 7.19198 -0.713531 0.0244383 -0.700197
1 1.4384 7.19198 4.31519 -0.245407 -0.894013 -0.374854
1 2.87679 5.75358 5.75358 0.259941 -0.0848153 0.961892
1 1.4384 7.19198 7.19198 0.80453 -0.513721 0.29803
1 4.31519 4.31519 4.31519 -0.0809946 -0.92379 -0.374235
1 4.31519 4.31519 7.19198 0.247118 0.880194 0.405205
1 4.31519 7.19198 4.31519 0.432073 -0.897858 0.084643
1 7.19198 4.31519 4.31519 0.161793 0.98055 -0.11111
1 5.75358 5.75358 5.75358 -0.059997 -0.97795 0.200035
1 4.31519 7.19198 7.19198 -0.434036 -0.714872 0.548244
1 7.19198 4.31519 7.19198 0.501361 0.450886 -0.738471
1 7.19198 7.19198 4.31519 -0.198316 0.306912 -0.930847
1 7.19198 7.19198 7.19198 0.160953 -0.416993 -0.894545
ITEM: TIMESTEP
800
ITEM: NUMBER OF ATOMS
54
ITEM: BOX BOUNDS pp pp pp
0.0000000000000000e+00 8.6303750400000006e+00
0.0000000000000000e+00 8.6303750400000006e+00
0.0000000000000000e+00 8.6303750400000006e+00
ITEM: ATOMS type x y z c_outsp[1] c_outsp[2] c_outsp[3]
1 0 0 0 -0.0971656 -0.348337 -0.93232
1 0 0 2.87679 0.242797 0.470333 -0.848432
1 0 2.87679 0 -0.740887 0.391059 -0.54604
1 2.87679 0 0 0.00863345 -0.983929 -0.178352
1 1.4384 1.4384 1.4384 -0.621695 -0.328921 -0.710849
1 0 2.87679 2.87679 -0.796164 0.307154 -0.521325
1 2.87679 0 2.87679 0.42145 0.251593 -0.871252
1 2.87679 2.87679 0 -0.904142 0.400648 -0.148352
1 2.87679 2.87679 2.87679 0.390041 0.458556 0.798495
1 5.75358 0 0 0.808955 -0.0839336 0.581848
1 4.31519 1.4384 1.4384 0.934703 0.238272 0.263736
1 5.75358 0 2.87679 0.0678412 -0.188913 0.979648
1 5.75358 2.87679 0 0.151723 -0.831025 -0.535143
1 7.19198 1.4384 1.4384 -0.215104 0.400255 -0.890801
1 5.75358 2.87679 2.87679 0.726909 -0.0688342 0.683275
1 0 5.75358 0 0.580751 -0.762443 0.285322
1 1.4384 4.31519 1.4384 -0.854108 0.397253 0.335693
1 0 5.75358 2.87679 -0.0373385 0.795754 -0.604468
1 2.87679 5.75358 0 0.8427 -0.517338 -0.149054
1 1.4384 7.19198 1.4384 0.21098 0.545717 0.810975
1 2.87679 5.75358 2.87679 0.0176129 0.572878 -0.819451
1 4.31519 4.31519 1.4384 0.640612 -0.382159 -0.666011
1 5.75358 5.75358 0 0.382896 -0.818476 -0.428355
1 4.31519 7.19198 1.4384 -0.368913 -0.362449 -0.855882
1 7.19198 4.31519 1.4384 -0.267919 0.540187 -0.797758
1 5.75358 5.75358 2.87679 0.511847 0.650548 -0.56107
1 7.19198 7.19198 1.4384 0.345528 -0.766269 0.541703
1 0 0 5.75358 0.225251 -0.032954 0.973743
1 1.4384 1.4384 4.31519 -0.662163 -0.52884 -0.530912
1 0 2.87679 5.75358 0.0453258 0.88601 -0.461445
1 2.87679 0 5.75358 -0.963614 0.251112 -0.0916013
1 1.4384 1.4384 7.19198 0.653577 -0.408729 -0.637007
1 2.87679 2.87679 5.75358 0.308206 -0.370254 0.876311
1 4.31519 1.4384 4.31519 0.00601495 -0.999968 -0.00518837
1 5.75358 0 5.75358 -0.943486 0.318433 0.0918373
1 4.31519 1.4384 7.19198 -0.885241 0.353535 0.302261
1 7.19198 1.4384 4.31519 0.891261 0.448051 0.0700237
1 5.75358 2.87679 5.75358 0.031969 0.653178 -0.75653
1 7.19198 1.4384 7.19198 -0.154389 -0.175898 -0.972226
1 1.4384 4.31519 4.31519 -0.353087 -0.214916 -0.910572
1 0 5.75358 5.75358 0.714547 0.620365 -0.323373
1 1.4384 4.31519 7.19198 -0.654706 0.312258 -0.688372
1 1.4384 7.19198 4.31519 -0.650468 -0.722448 0.234437
1 2.87679 5.75358 5.75358 -0.561533 0.0341568 0.826749
1 1.4384 7.19198 7.19198 0.62163 -0.564432 0.543132
1 4.31519 4.31519 4.31519 -0.155577 -0.742358 -0.65169
1 4.31519 4.31519 7.19198 -0.0726798 0.798365 0.597772
1 4.31519 7.19198 4.31519 0.257072 -0.400283 0.879595
1 7.19198 4.31519 4.31519 0.571703 0.0901701 -0.815491
1 5.75358 5.75358 5.75358 -0.705832 -0.705097 -0.0681188
1 4.31519 7.19198 7.19198 -0.256536 -0.957124 0.134546
1 7.19198 4.31519 7.19198 0.676493 -0.342483 -0.651968
1 7.19198 7.19198 4.31519 -0.693283 0.343757 -0.633395
1 7.19198 7.19198 7.19198 0.726993 0.0991336 -0.679452
ITEM: TIMESTEP
900
ITEM: NUMBER OF ATOMS
54
ITEM: BOX BOUNDS pp pp pp
0.0000000000000000e+00 8.6303750400000006e+00
0.0000000000000000e+00 8.6303750400000006e+00
0.0000000000000000e+00 8.6303750400000006e+00
ITEM: ATOMS type x y z c_outsp[1] c_outsp[2] c_outsp[3]
1 0 0 0 0.507126 -0.0483325 -0.860516
1 0 0 2.87679 0.330123 -0.122891 -0.935904
1 0 2.87679 0 0.0399533 0.615051 -0.787475
1 2.87679 0 0 0.0283603 -0.971833 -0.233958
1 1.4384 1.4384 1.4384 -0.907267 0.359309 -0.218548
1 0 2.87679 2.87679 -0.0973795 0.979534 -0.176152
1 2.87679 0 2.87679 0.760412 0.118009 -0.638629
1 2.87679 2.87679 0 -0.829018 0.559129 -0.0102076
1 2.87679 2.87679 2.87679 0.509891 0.464419 0.724104
1 5.75358 0 0 0.130531 -0.410079 0.902661
1 4.31519 1.4384 1.4384 0.635921 0.122433 0.761981
1 5.75358 0 2.87679 -0.226066 -0.739622 0.633919
1 5.75358 2.87679 0 -0.827335 -0.28589 -0.483512
1 7.19198 1.4384 1.4384 0.276896 0.537128 -0.796757
1 5.75358 2.87679 2.87679 0.0177179 -0.998521 0.0513964
1 0 5.75358 0 0.106689 -0.969167 -0.222112
1 1.4384 4.31519 1.4384 0.118764 0.866433 0.484963
1 0 5.75358 2.87679 0.1884 0.556452 -0.809238
1 2.87679 5.75358 0 0.807668 -0.587116 0.0544795
1 1.4384 7.19198 1.4384 0.0328964 -0.1014 0.994302
1 2.87679 5.75358 2.87679 0.0751772 0.541546 -0.837303
1 4.31519 4.31519 1.4384 0.410885 -0.209981 -0.887176
1 5.75358 5.75358 0 0.196001 -0.642205 -0.741051
1 4.31519 7.19198 1.4384 0.435993 0.642938 -0.629715
1 7.19198 4.31519 1.4384 0.716762 0.459854 -0.5242
1 5.75358 5.75358 2.87679 0.909566 -0.303912 -0.283421
1 7.19198 7.19198 1.4384 -0.467678 -0.842594 -0.267045
1 0 0 5.75358 -0.192749 -0.218557 0.956598
1 1.4384 1.4384 4.31519 -0.843792 -0.204338 -0.496247
1 0 2.87679 5.75358 0.898624 0.0537173 -0.435419
1 2.87679 0 5.75358 -0.177115 -0.563391 -0.806982
1 1.4384 1.4384 7.19198 0.161697 -0.980885 -0.108254
1 2.87679 2.87679 5.75358 0.29251 0.282309 0.913641
1 4.31519 1.4384 4.31519 0.288637 -0.947628 -0.136711
1 5.75358 0 5.75358 -0.909016 0.305733 -0.283227
1 4.31519 1.4384 7.19198 -0.800005 0.531845 -0.277728
1 7.19198 1.4384 4.31519 0.950736 -0.217518 -0.220879
1 5.75358 2.87679 5.75358 0.7036 0.227832 -0.673083
1 7.19198 1.4384 7.19198 -0.299264 0.364384 -0.881853
1 1.4384 4.31519 4.31519 -0.977318 -0.041209 -0.207731
1 0 5.75358 5.75358 0.986318 -0.0866409 -0.140247
1 1.4384 4.31519 7.19198 -0.713294 0.478648 -0.511965
1 1.4384 7.19198 4.31519 -0.780044 -0.28261 0.558268
1 2.87679 5.75358 5.75358 -0.904674 0.274517 0.325893
1 1.4384 7.19198 7.19198 -0.0541884 -0.731617 0.679559
1 4.31519 4.31519 4.31519 -0.266884 -0.524791 -0.808312
1 4.31519 4.31519 7.19198 0.238226 0.967677 0.0827657
1 4.31519 7.19198 4.31519 -0.00490369 0.304609 0.952465
1 7.19198 4.31519 4.31519 0.114415 0.239966 -0.964015