ITEM: TIMESTEP
8500
ITEM: NUMBER OF ATOMS
54
ITEM: BOX BOUNDS pp pp pp
0.0000000000000000e+00 8.6303750400000006e+00
0.0000000000000000e+00 8.6303750400000006e+00
0.0000000000000000e+00 8.6303750400000006e+00
ITEM: ATOMS c_outsp[1] c_outsp[2] c_outsp[3]
0.153259 0.781497 0.604793
0.188701 -0.912635 -0.362613
-0.91369 -0.0188057 -0.405975
0.210282 -0.187918 0.95941
0.42833 0.859677 0.278367
0.383414 0.919316 0.0886085
0.20804 -0.937428 -0.279191
0.0708276 -0.934581 0.348627
-0.759885 -0.601621 -0.246227
0.109598 -0.850477 -0.514469
-0.279259 -0.43472 0.856174
-0.5305 0.844053 -0.0783846
0.130809 -0.369383 -0.920025
0.490469 0.757882 0.43018
-0.647708 -0.000486042 -0.761888
0.637109 -0.542612 -0.547415
-0.96251 0.266385 0.0511206
0.642625 0.344693 -0.684266
0.685507 -0.473841 0.55277
0.3314 -0.817498 -0.471032
-0.24423 -0.274077 -0.930179
0.3057 0.87541 0.37444
0.504273 0.711424 -0.489475
0.0683918 0.788378 -0.611378
0.218419 0.263672 -0.939558
-0.982184 -0.130648 0.135073
-0.691009 -0.28893 -0.66259
-0.431967 0.888824 -0.152962
-0.187523 0.856793 -0.480355
0.60934 -0.0147793 -0.792772
0.932089 -0.240151 -0.271179
-0.0973086 -0.995244 0.00452989
-0.291101 0.0379396 -0.95594
0.662137 0.27521 -0.697018
-0.266372 -0.624199 0.734453
-0.473776 0.818507 0.324934
0.0228657 -0.977091 -0.211588
0.78365 -0.0167126 0.620978
0.671517 -0.509375 0.538146
-0.926706 0.336932 -0.16641
0.433546 -0.549884 -0.713909
-0.120982 -0.38382 -0.915448
0.0357984 -0.771163 -0.63563
0.462448 0.479976 -0.745496
-0.968466 -0.0063445 0.249066
-0.638208 0.513163 0.573894
0.7391 0.601373 -0.30345
0.862547 -0.465209 0.19898
0.0649643 0.983407 0.169384
0.0721199 -0.960231 -0.26973
-0.0366488 0.316375 -0.947926
-0.585457 -0.732833 -0.346693
-0.135533 -0.885479 -0.444476
-0.54821 0.407197 0.730518
ITEM: TIMESTEP
8505
ITEM: NUMBER OF ATOMS
54
ITEM: BOX BOUNDS pp pp pp
0.0000000000000000e+00 8.6303750400000006e+00
0.0000000000000000e+00 8.6303750400000006e+00
0.0000000000000000e+00 8.6303750400000006e+00
ITEM: ATOMS c_outsp[1] c_outsp[2] c_outsp[3]
0.179411 0.781159 0.597999
0.206631 -0.90613 -0.369096
-0.927115 0.00074331 -0.374777
0.195761 -0.202663 0.959482
0.435563 0.848642 0.300153
0.427544 0.899344 0.0915841
0.217009 -0.936412 -0.275751
0.0354489 -0.939013 0.34205
-0.758397 -0.581037 -0.295347
0.0859588 -0.863855 -0.496352
-0.330626 -0.416171 0.847047
-0.472614 0.873884 -0.113851
0.145127 -0.354388 -0.923768
0.50784 0.757154 0.410873
-0.658165 0.019025 -0.752634
0.628176 -0.561321 -0.538807
-0.943521 0.324566 0.0665153
0.660786 0.328204 -0.675014
0.682614 -0.50845 0.524897
0.309507 -0.842445 -0.441012
-0.273639 -0.290185 -0.917014
0.332048 0.86517 0.3758
0.549825 0.691685 -0.468256
0.0681802 0.790848 -0.608204
0.227665 0.255347 -0.939663
-0.986694 -0.0765799 0.143425
-0.701777 -0.267698 -0.660187
-0.393545 0.905055 -0.161241
-0.175233 0.874067 -0.4531
0.614289 -0.0642731 -0.786459
0.923744 -0.261661 -0.279697
-0.142341 -0.989524 -0.0241044
-0.304902 0.0724479 -0.949624
0.682301 0.264451 -0.681565
-0.315345 -0.629486 0.710145
-0.456731 0.823289 0.337035
0.0257189 -0.975582 -0.218125
0.796157 -0.0306764 0.604312
0.605984 -0.546426 0.578103
-0.911341 0.359823 -0.199962
0.43613 -0.577816 -0.689869
-0.125228 -0.38812 -0.913061
0.0165128 -0.785645 -0.618458
0.436007 0.48186 -0.760072
-0.976393 0.00763802 0.215865
-0.640524 0.506575 0.577157
0.756296 0.564783 -0.330208
0.852612 -0.476816 0.213774
0.0860228 0.984561 0.152444
0.0590909 -0.961637 -0.267885
0.0115094 0.324814 -0.945708
-0.628708 -0.697621 -0.343586
-0.149033 -0.885298 -0.440496
-0.525552 0.431698 0.733098
ITEM: TIMESTEP
8510
ITEM: NUMBER OF ATOMS
54
ITEM: BOX BOUNDS pp pp pp
0.0000000000000000e+00 8.6303750400000006e+00
0.0000000000000000e+00 8.6303750400000006e+00
0.0000000000000000e+00 8.6303750400000006e+00
ITEM: ATOMS c_outsp[1] c_outsp[2] c_outsp[3]
0.204688 0.779617 0.591861
0.224037 -0.899239 -0.375735
-0.938907 0.0216159 -0.343491
0.181372 -0.217475 0.959067
0.444242 0.836171 0.321664
0.470786 0.877017 0.0959248
0.22573 -0.935601 -0.271472
0.00059033 -0.942641 0.333806
-0.754673 -0.558589 -0.344161
0.0622204 -0.876368 -0.477607
-0.380386 -0.395356 0.836062
-0.412695 0.89871 -0.148334
0.161394 -0.339703 -0.926582
0.525129 0.755679 0.391394
-0.667851 0.0398074 -0.74323
0.61847 -0.579664 -0.530551
-0.921179 0.38053 0.0814029
0.678156 0.311044 -0.66585
0.676804 -0.54321 0.496849
0.285571 -0.866096 -0.410277
-0.304279 -0.303278 -0.903015
0.358281 0.853683 0.37797
0.593543 0.669765 -0.44623
0.0673251 0.79416 -0.603968
0.236336 0.247376 -0.939654
-0.988226 -0.0231242 0.151244
-0.711749 -0.246354 -0.657817
-0.353954 0.919794 -0.169398
-0.162621 0.890332 -0.42528
0.616378 -0.112967 -0.779305
0.915018 -0.282678 -0.28781
-0.186836 -0.98094 -0.0533738
-0.315591 0.107711 -0.942762
0.702037 0.251973 -0.666073
-0.364193 -0.63241 0.683682
-0.439314 0.827843 0.348826
0.0279531 -0.974114 -0.224321
0.808221 -0.0450672 0.587152
0.535125 -0.580481 0.613745
-0.894649 0.381824 -0.231976
0.435604 -0.60638 -0.665246
-0.130642 -0.392401 -0.910469
-0.00353233 -0.798841 -0.601532
0.409786 0.483248 -0.773658
-0.983114 0.0228268 0.181564
-0.643196 0.50128 0.578807
0.771367 0.526732 -0.357137
0.841689 -0.489041 0.228907
0.106887 0.985114 0.134629
0.045895 -0.962802 -0.26628
0.0602443 0.330371 -0.941926
-0.669758 -0.660077 -0.340181
-0.162263 -0.884765 -0.436877
-0.501227 0.45534 0.735824
ITEM: TIMESTEP
8515
ITEM: NUMBER OF ATOMS
54
ITEM: BOX BOUNDS pp pp pp
0.0000000000000000e+00 8.6303750400000006e+00
0.0000000000000000e+00 8.6303750400000006e+00
0.0000000000000000e+00 8.6303750400000006e+00
ITEM: ATOMS c_outsp[1] c_outsp[2] c_outsp[3]
0.229065 0.77691 0.586464
0.240894 -0.891989 -0.382526
-0.949022 0.0435962 -0.312179
0.167105 -0.232397 0.958158
0.454278 0.822228 0.342889
0.512927 0.852394 0.101635
0.234228 -0.934967 -0.266408
-0.0336573 -0.945468 0.323971
-0.748641 -0.534317 -0.392483
0.0384002 -0.887988 -0.45826
-0.428372 -0.372449 0.823273
-0.351218 0.918497 -0.181687
0.179539 -0.325453 -0.928357
0.542291 0.753449 0.371799
-0.676689 0.0618168 -0.733669
0.60797 -0.597678 -0.522641
-0.895762 0.434091 0.0957869
0.694697 0.293285 -0.656795
0.668009 -0.578004 0.468695
0.259591 -0.888282 -0.378903
-0.33584 -0.313366 -0.888264
0.384277 0.840962 0.380938
0.635343 0.645789 -0.423433
0.065866 0.798304 -0.598642
0.244439 0.239803 -0.939545
-0.986906 0.0294989 0.158578
-0.720924 -0.224914 -0.655501
-0.313252 0.932945 -0.177448
-0.14973 0.905552 -0.396933
0.615825 -0.160673 -0.771326
0.905932 -0.303251 -0.295509
-0.23063 -0.969481 -0.0831648
-0.323085 0.143491 -0.935429
0.721297 0.237846 -0.650508
-0.412654 -0.632946 0.655054
-0.421517 0.832149 0.360349
0.0295528 -0.972708 -0.230142
0.819836 -0.0598071 0.569466
0.459324 -0.611143 0.644613
-0.876776 0.402951 -0.262476
0.4319 -0.63537 -0.640131
-0.137219 -0.396598 -0.907679
-0.0242472 -0.810732 -0.584915
0.383839 0.484229 -0.78625
-0.98848 0.0391939 0.146186
-0.646149 0.497422 0.578847
0.78422 0.487274 -0.38414
0.829722 -0.501834 0.244385
0.127498 0.985037 0.115958
0.0325271 -0.96373 -0.264891
0.109376 0.332955 -0.936578
-0.708482 -0.620336 -0.336507
-0.175223 -0.883909 -0.433591
-0.475247 0.478024 0.73867
ITEM: TIMESTEP
8520
ITEM: NUMBER OF ATOMS
54
ITEM: BOX BOUNDS pp pp pp
0.0000000000000000e+00 8.6303750400000006e+00
0.0000000000000000e+00 8.6303750400000006e+00
0.0000000000000000e+00 8.6303750400000006e+00
ITEM: ATOMS c_outsp[1] c_outsp[2] c_outsp[3]
0.252514 0.773074 0.581887
0.257176 -0.884408 -0.389465
-0.957432 0.0664588 -0.280903
0.152946 -0.247472 0.956747
0.465566 0.806774 0.363819
0.55376 0.82555 0.108706
0.242537 -0.934481 -0.260618
-0.067207 -0.947498 0.31262
-0.740229 -0.508279 -0.440128
0.0145223 -0.89869 -0.438344
-0.474438 -0.347636 0.808739
-0.288652 0.933263 -0.213778
0.199478 -0.311759 -0.928986
0.559277 0.750467 0.352148
-0.684602 0.0849998 -0.723944
0.596649 -0.615396 -0.51507
-0.867559 0.485092 0.109667
0.710379 0.275003 -0.647869
0.65617 -0.6127 0.440499
0.23158 -0.908834 -0.346974
-0.368019 -0.320504 -0.872834
0.409915 0.827032 0.384691
0.675146 0.619882 -0.399904
0.0638452 0.803265 -0.592191
0.251984 0.232673 -0.939344
-0.982876 0.0810858 0.16547
-0.7293 -0.203397 -0.653262
-0.271501 0.94441 -0.185409
-0.13661 0.919696 -0.368099
0.612857 -0.207234 -0.762536
0.8965 -0.323424 -0.302796
-0.273556 -0.955152 -0.113366
-0.327328 0.179541 -0.927697
0.740029 0.222137 -0.634833
-0.460458 -0.631089 0.624263
-0.403335 0.836183 0.371644
0.0304963 -0.971382 -0.235556
0.830997 -0.0748238 0.551221
0.379043 -0.638015 0.670271
-0.857854 0.42322 -0.291498
0.424964 -0.664565 -0.61462
-0.144947 -0.400643 -0.904696
-0.045542 -0.82131 -0.568662
0.358215 0.484901 -0.797843
-0.992339 0.0566937 0.109766
-0.649295 0.495133 0.577286
0.794758 0.446474 -0.411122
0.816652 -0.515143 0.260208
0.147786 0.984305 0.0964554
0.0189767 -0.96442 -0.263693
0.158715 0.332482 -0.929659
-0.74476 -0.578543 -0.332597
-0.187922 -0.882755 -0.430614
-0.447628 0.499656 0.741602
ITEM: TIMESTEP
8525
ITEM: NUMBER OF ATOMS
54
ITEM: BOX BOUNDS pp pp pp
0.0000000000000000e+00 8.6303750400000006e+00
0.0000000000000000e+00 8.6303750400000006e+00
0.0000000000000000e+00 8.6303750400000006e+00
ITEM: ATOMS c_outsp[1] c_outsp[2] c_outsp[3]
0.27501 0.768143 0.578209
0.272861 -0.876528 -0.396543
-0.964129 0.0899716 -0.24972
0.138876 -0.262734 0.954822
0.477987 0.789767 0.384443
0.593082 0.796578 0.11712
0.250694 -0.934106 -0.254162
-0.0999763 -0.948738 0.299833
-0.729376 -0.480553 -0.486908
-0.00938284 -0.90845 -0.417889
-0.518454 -0.321115 0.792522
-0.225454 0.943078 -0.24449
0.221109 -0.298735 -0.928369
0.57604 0.746743 0.332494
-0.691516 0.109295 -0.714045
0.584472 -0.632849 -0.507832
-0.836861 0.533409 0.123038
0.72518 0.25628 -0.639089
0.641243 -0.647148 0.41232
0.20157 -0.927583 -0.314579
-0.40052 -0.324789 -0.856794
0.435079 0.811925 0.38921
0.712885 0.592165 -0.37568
0.0613081 0.809016 -0.584581
0.258989 0.226027 -0.939061
-0.976294 0.131451 0.171963
-0.736876 -0.181818 -0.651119
-0.228771 0.954095 -0.193302
-0.123314 0.932736 -0.338818
0.6077 -0.252524 -0.752949
0.886729 -0.343241 -0.309672
-0.315453 -0.937971 -0.143871
-0.328294 0.215607 -0.91964
0.758183 0.204918 -0.619005
-0.507328 -0.626852 0.591333
-0.384764 0.839916 0.382749
0.0307559 -0.970155 -0.240529
0.841701 -0.0900507 0.532381
0.29482 -0.660706 0.690325
-0.838001 0.442651 -0.319084
0.414755 -0.69374 -0.588815
-0.153815 -0.404469 -0.901524
-0.0673279 -0.830574 -0.552823
0.332966 0.485362 -0.808429
-0.994536 0.0752608 0.0723453
-0.652528 0.49454 0.574141
0.802883 0.404414 -0.437982
0.802422 -0.528902 0.276372
0.167676 0.982897 0.0761468
0.00522758 -0.964873 -0.262665
0.208061 0.328883 -0.921166
-0.778484 -0.534843 -0.328489
-0.200374 -0.881324 -0.427923
-0.418395 0.520143 0.744579
ITEM: TIMESTEP
8530
ITEM: NUMBER OF ATOMS
54
ITEM: BOX BOUNDS pp pp pp
0.0000000000000000e+00 8.6303750400000006e+00
0.0000000000000000e+00 8.6303750400000006e+00
0.0000000000000000e+00 8.6303750400000006e+00
ITEM: ATOMS c_outsp[1] c_outsp[2] c_outsp[3]
0.296527 0.762148 0.575502
0.287927 -0.868379 -0.403752
-0.969126 0.113899 -0.218682
0.124875 -0.278213 0.952367
0.491407 0.771164 0.404753
0.630703 0.765587 0.126846
0.258744 -0.933804 -0.247108
-0.131887 -0.949202 0.285694
-0.716024 -0.451231 -0.532635
-0.0332783 -0.917245 -0.39693
-0.560311 -0.293091 0.774693
-0.162063 0.948057 -0.273721
0.244321 -0.28649 -0.926408
0.592531 0.742298 0.312891
-0.697357 0.134631 -0.703966
0.571395 -0.650064 -0.500923
-0.803963 0.578945 0.135892
0.739083 0.2372 -0.63047
0.623195 -0.681183 0.384211
0.169607 -0.94436 -0.28181
-0.433059 -0.326359 -0.840209
0.459652 0.795681 0.394476
0.748495 0.562756 -0.3508
0.0583029 0.815525 -0.575778
0.265474 0.219905 -0.938704
-0.967331 0.180427 0.178093
-0.743649 -0.160196 -0.649095
-0.185139 0.961906 -0.20115
-0.109899 0.944648 -0.309132
0.600578 -0.296445 -0.74258
0.876623 -0.362743 -0.316148
-0.35616 -0.917972 -0.174576
-0.325982 0.251427 -0.911329
0.775709 0.18626 -0.602978
-0.552985 -0.620267 0.556306
-0.365805 0.843319 0.393701
0.0302973 -0.969041 -0.245034
0.851944 -0.105426 0.51291
0.207274 -0.67884 0.704425
-0.817323 0.461262 -0.345282
0.401245 -0.722658 -0.562821
-0.163804 -0.408005 -0.898165
-0.0895185 -0.838536 -0.537441
0.308144 0.485715 -0.818003
-0.994915 0.0948096 0.0339793
-0.655726 0.495752 0.569432
0.808498 0.361189 -0.464622
0.786978 -0.543042 0.292868
0.187086 0.980799 0.0550615
-0.00874107 -0.965086 -0.261786
0.257201 0.322101 -0.911097
-0.809553 -0.489391 -0.324224
-0.212599 -0.879632 -0.425498
-0.387578 0.539392 0.747556
ITEM: TIMESTEP
8535
ITEM: NUMBER OF ATOMS
54
ITEM: BOX BOUNDS pp pp pp
0.0000000000000000e+00 8.6303750400000006e+00
0.0000000000000000e+00 8.6303750400000006e+00
0.0000000000000000e+00 8.6303750400000006e+00
ITEM: ATOMS c_outsp[1] c_outsp[2] c_outsp[3]
0.317041 0.755114 0.573836
0.302354 -0.859995 -0.411084
-0.972456 0.138003 -0.187842
0.110918 -0.293934 0.949368
0.505678 0.750923 0.424741
0.666441 0.732704 0.137846
0.266734 -0.933532 -0.239524
-0.162866 -0.948905 0.270285
-0.700121 -0.420424 -0.577126
-0.0571209 -0.925059 -0.375503
-0.599923 -0.263777 0.755324
-0.0988928 0.948361 -0.301384
0.268988 -0.275124 -0.923013
0.608705 0.737157 0.29339
-0.702058 0.16093 -0.693697
0.557366 -0.667061 -0.49434
-0.769157 0.621636 0.148213
0.752081 0.217847 -0.622027
0.60201 -0.714625 0.356223
0.135755 -0.959003 -0.248766
-0.465372 -0.325387 -0.823135
0.483527 0.778351 0.400465
0.781917 0.531773 -0.325305
0.0548814 0.82275 -0.565747
0.271466 0.214345 -0.938276
-0.95617 0.227866 0.183892
-0.749618 -0.138548 -0.647207
-0.140685 0.967748 -0.208977
-0.0964268 0.955413 -0.279085
0.591708 -0.338925 -0.731445
0.866179 -0.381968 -0.322233
-0.395518 -0.8952 -0.205384
-0.320423 0.286744 -0.902833
0.792556 0.166239 -0.586702
-0.597148 -0.611392 0.519244
-0.346462 0.846356 0.404531
0.0290799 -0.968055 -0.249047
0.86172 -0.120895 0.492771
0.117092 -0.692068 0.712272
-0.795916 0.479071 -0.370147
0.384423 -0.751076 -0.536752
-0.174894 -0.411179 -0.894619
-0.11203 -0.845213 -0.522555
0.283802 0.486063 -0.826558
-0.993325 0.115233 -0.00526638
-0.65875 0.498869 0.563186
0.811508 0.316912 -0.49094
0.770265 -0.557484 0.309683
0.205927 0.978003 0.0332328
-0.0229544 -0.965055 -0.26104
0.305917 0.312093 -0.899451
-0.837874 -0.442342 -0.319846
-0.22462 -0.877692 -0.423323
-0.355217 0.557316 0.75048
ITEM: TIMESTEP
8540
ITEM: NUMBER OF ATOMS
54
ITEM: BOX BOUNDS pp pp pp
0.0000000000000000e+00 8.6303750400000006e+00
0.0000000000000000e+00 8.6303750400000006e+00
0.0000000000000000e+00 8.6303750400000006e+00
ITEM: ATOMS c_outsp[1] c_outsp[2] c_outsp[3]
0.336525 0.747065 0.573275
0.316123 -0.851411 -0.418528
-0.974173 0.162049 -0.157251
0.096978 -0.309916 0.945805
0.520639 0.729005 0.444394
0.700131 0.698065 0.150073
0.27472 -0.933245 -0.231478
-0.192846 -0.947867 0.253691
-0.681623 -0.388262 -0.620196
-0.0808618 -0.931878 -0.353645
-0.637222 -0.23339 0.734491
-0.0363277 0.944184 -0.327409
0.294972 -0.264728 -0.918102
0.624518 0.731356 0.274035
-0.705555 0.188105 -0.683234
0.542327 -0.683854 -0.488083
-0.732734 0.661443 0.159984
0.764172 0.198311 -0.613771
0.577689 -0.747281 0.328399
0.100095 -0.97135 -0.215546
-0.497218 -0.322082 -0.805629
0.506599 0.759991 0.407149
0.813097 0.49933 -0.299236
0.0510982 0.830643 -0.554456
0.276992 0.20938 -0.937782
-0.943001 0.273643 0.189388
-0.754783 -0.116895 -0.645476
-0.0955001 0.971531 -0.216811
-0.0829596 0.965016 -0.248722
0.581295 -0.379917 -0.719555
0.85539 -0.400951 -0.327944
-0.433373 -0.869711 -0.236201
-0.311675 0.321298 -0.894218
0.808675 0.144929 -0.570124
-0.639544 -0.600303 0.480229
-0.326739 0.848994 0.415272
0.027057 -0.967205 -0.25255
0.871022 -0.136404 0.471926
0.0250303 -0.700071 0.713634
-0.773862 0.496095 -0.393735
0.364295 -0.778744 -0.510732
-0.187061 -0.41392 -0.890886
-0.134784 -0.850629 -0.508196
0.259995 0.48651 -0.834093
-0.989617 0.136401 -0.0453138
-0.661445 0.503971 0.555431
0.811821 0.271711 -0.516837
0.752234 -0.572142 0.326799
0.224106 0.974506 0.010699
-0.0374408 -0.964771 -0.260413
0.353976 0.298833 -0.886228
-0.863364 -0.393857 -0.315404
-0.236465 -0.87551 -0.421387
-0.321357 0.573829 0.753293
ITEM: TIMESTEP
8545
ITEM: NUMBER OF ATOMS
54
ITEM: BOX BOUNDS pp pp pp
0.0000000000000000e+00 8.6303750400000006e+00
0.0000000000000000e+00 8.6303750400000006e+00
0.0000000000000000e+00 8.6303750400000006e+00
ITEM: ATOMS c_outsp[1] c_outsp[2] c_outsp[3]
0.354955 0.738018 0.573878
0.329216 -0.84266 -0.426077
-0.97435 0.185806 -0.126957
0.0830281 -0.326169 0.941658
0.536117 0.705379 0.463702
0.731619 0.661824 0.163472
0.282757 -0.932899 -0.223042
-0.221765 -0.946112 0.235994
-0.660492 -0.354892 -0.661666
-0.104447 -0.937693 -0.331394
-0.672163 -0.202145 0.712274
0.0252802 0.935757 -0.351738
0.322126 -0.255384 -0.9116
0.63993 0.724935 0.254872
-0.707788 0.216062 -0.672572
0.526213 -0.700447 -0.482156
-0.69498 0.698355 0.171181
0.775363 0.178679 -0.605711
0.550249 -0.778945 0.300783
0.0627264 -0.981248 -0.182257
-0.528379 -0.316677 -0.787738
0.528771 0.740668 0.414503
0.841986 0.465542 -0.272636
0.0470113 0.839144 -0.541873
0.282087 0.20504 -0.937222
-0.928023 0.317652 0.194602
-0.759142 -0.0952548 -0.643917
-0.0496807 0.973166 -0.224677
-0.0695617 0.973447 -0.218086
0.569531 -0.419393 -0.706925
0.844243 -0.419722 -0.333298
-0.469575 -0.841571 -0.26694
-0.299825 0.354838 -0.885548
0.824015 0.122407 -0.553187
-0.679906 -0.587101 0.439364
-0.306645 0.851197 0.42595
0.0241765 -0.966497 -0.255535
0.879839 -0.151909 0.45034
-0.0680962 -0.702576 0.708343
-0.751237 0.512346 -0.416106
0.340888 -0.805405 -0.484889
-0.200274 -0.416156 -0.886964
-0.157705 -0.854815 -0.494389
0.236781 0.487156 -0.840603
-0.983655 0.158162 -0.086073
-0.66364 0.511121 0.546202
0.809352 0.225731 -0.542214
0.73284 -0.586921 0.344194
0.241522 0.970315 -0.0124963
-0.0522313 -0.964222 -0.259898
0.401139 0.282309 -0.871429
-0.88595 -0.3441 -0.310945
-0.248161 -0.873089 -0.41968
-0.28605 0.58885 0.755931
ITEM: TIMESTEP
8550
ITEM: NUMBER OF ATOMS
54
ITEM: BOX BOUNDS pp pp pp
0.0000000000000000e+00 8.6303750400000006e+00
0.0000000000000000e+00 8.6303750400000006e+00
0.0000000000000000e+00 8.6303750400000006e+00
ITEM: ATOMS c_outsp[1] c_outsp[2] c_outsp[3]
0.372305 0.727986 0.575696
0.341616 -0.833776 -0.433724
-0.973081 0.20905 -0.0970096
0.069039 -0.3427 0.936905
0.551929 0.680017 0.482649
0.760769 0.624141 0.177982
0.290908 -0.932445 -0.214287
-0.249565 -0.943667 0.217277
-0.6367 -0.320478 -0.701361
-0.127817 -0.942503 -0.308791
-0.70472 -0.17026 0.688754
0.0856155 0.923334 -0.374332
0.350294 -0.24716 -0.903441
0.654903 0.717938 0.235938
-0.708703 0.244702 -0.661711
0.508952 -0.716835 -0.476566
-0.656175 0.732387 0.181776
0.78567 0.159039 -0.597855
0.519729 -0.809399 0.273413
0.0237657 -0.988551 -0.149004
-0.558664 -0.309431 -0.769511
0.549953 0.720451 0.422495
0.868537 0.430522 -0.245549
0.0426816 0.848188 -0.527972
0.286786 0.201351 -0.936596
-0.911438 0.359806 0.199551
-0.762696 -0.0736491 -0.64255
-0.00333157 0.972566 -0.232604
-0.0562979 0.980703 -0.187224
0.556594 -0.457349 -0.693567
0.832724 -0.438307 -0.338316
-0.503978 -0.810856 -0.29752
-0.284986 0.387122 -0.876881
0.838529 0.0987516 -0.535834
-0.717981 -0.571906 0.396771
-0.286192 0.852927 0.436589
0.0203816 -0.965929 -0.258003
0.888157 -0.167366 0.427978
-0.161424 -0.699357 0.696306
-0.728106 0.527837 -0.437321
0.31425 -0.830802 -0.459364
-0.214501 -0.417815 -0.882848
-0.180723 -0.857806 -0.481153
0.214222 0.488097 -0.846091
-0.975313 0.180342 -0.127442
-0.66515 0.520362 0.535535
0.804022 0.179131 -0.566976
0.712043 -0.60172 0.361838
0.258072 0.965443 -0.0363036
-0.0673578 -0.963393 -0.259492
0.447156 0.262532 -0.85506
-0.905569 -0.293239 -0.306523
-0.25974 -0.870428 -0.418199
-0.249356 0.602302 0.758323
ITEM: TIMESTEP
8555
ITEM: NUMBER OF ATOMS
54
ITEM: BOX BOUNDS pp pp pp
0.0000000000000000e+00 8.6303750400000006e+00
0.0000000000000000e+00 8.6303750400000006e+00
0.0000000000000000e+00 8.6303750400000006e+00
ITEM: ATOMS c_outsp[1] c_outsp[2] c_outsp[3]
0.388545 0.716975 0.578774
0.353309 -0.824793 -0.441463
-0.970477 0.231568 -0.0674594
0.0549817 -0.359506 0.931522
0.567884 0.652906 0.50122
0.787462 0.585189 0.193541
0.299235 -0.931835 -0.205284
-0.276197 -0.940564 0.19762
-0.610226 -0.285202 -0.73911
-0.150911 -0.94631 -0.285874
-0.734886 -0.137948 0.664013
0.144401 0.907191 -0.395162
0.379313 -0.240115 -0.89357
0.669406 0.710415 0.21727
-0.708253 0.273918 -0.650651
0.490471 -0.733002 -0.471325
-0.616589 0.763579 0.19174
0.795112 0.139477 -0.590205
0.486187 -0.838419 0.246326
-0.0166541 -0.993122 -0.115895
-0.587911 -0.300622 -0.750991
0.570061 0.699419 0.431096
0.892708 0.394383 -0.218024
0.038173 0.8577 -0.512732
0.291126 0.198332 -0.935901
-0.893449 0.400043 0.204244
-0.765446 -0.0520988 -0.641388
0.0434338 0.969648 -0.240618
-0.0432323 0.986782 -0.156179
0.542643 -0.493793 -0.679491
0.820814 -0.456729 -0.343021
-0.536437 -0.77765 -0.327864
-0.267297 0.417919 -0.868272
0.852166 0.074042 -0.518006
-0.753532 -0.55486 0.352591
-0.265393 0.854148 0.447212
0.0156121 -0.965493 -0.259962
0.895957 -0.182735 0.404807
-0.254051 -0.690248 0.677508
-0.704526 0.542576 -0.457443
0.284455 -0.854672 -0.434306
-0.229703 -0.418825 -0.878534
-0.203775 -0.859641 -0.468501
0.19238 0.489426 -0.85056
-0.964484 0.202746 -0.169305
-0.665775 0.531715 0.523471
0.795762 0.13209 -0.591029
0.689811 -0.616431 0.379702
0.273652 0.959914 -0.0606661
-0.0828524 -0.962264 -0.259197
0.491774 0.239528 -0.837129
-0.922164 -0.241444 -0.302188
-0.271231 -0.86752 -0.416944
-0.211344 0.614114 0.760393
ITEM: TIMESTEP
8560
ITEM: NUMBER OF ATOMS
54
ITEM: BOX BOUNDS pp pp pp
0.0000000000000000e+00 8.6303750400000006e+00
0.0000000000000000e+00 8.6303750400000006e+00
0.0000000000000000e+00 8.6303750400000006e+00
ITEM: ATOMS c_outsp[1] c_outsp[2] c_outsp[3]
0.403649 0.704986 0.583148
0.364283 -0.815742 -0.449291
-0.966665 0.253157 -0.0383583
0.0408275 -0.376579 0.925484
0.583783 0.624041 0.519395
0.811594 0.545144 0.21008
0.307804 -0.931022 -0.196101
-0.301615 -0.936837 0.1771
-0.581062 -0.249261 -0.774749
-0.173663 -0.949124 -0.262687
-0.762675 -0.105417 0.638133
0.201397 0.887619 -0.414212
0.409014 -0.234293 -0.881938
0.683411 0.702416 0.198898
-0.706397 0.303598 -0.639399
0.470689 -0.748918 -0.466448
-0.576482 0.791992 0.201039
0.80372 0.12008 -0.582765
0.449704 -0.865772 0.219557
-0.0583833 -0.994834 -0.0830415
-0.615986 -0.290539 -0.732222
0.589022 0.677651 0.440274
0.914461 0.357239 -0.190109
0.0335519 0.867596 -0.496136
0.295144 0.196001 -0.935133
-0.874259 0.438318 0.208684
-0.767391 -0.030626 -0.640448
0.0904932 0.964332 -0.248746
-0.0304276 0.99169 -0.124998
0.527815 -0.528748 -0.664708
0.808491 -0.475005 -0.347438
-0.566813 -0.742044 -0.357901
-0.246918 0.447016 -0.859772
0.86488 0.0483597 -0.499644
-0.786342 -0.536124 0.306981
-0.244265 0.854823 0.457834
0.0098054 -0.965172 -0.261434
0.903215 -0.197981 0.380797
-0.345047 -0.675146 0.652012
-0.680551 0.556567 -0.476533
0.251604 -0.876756 -0.40987
-0.24584 -0.419116 -0.874016
-0.226801 -0.860362 -0.456441
0.171324 0.491229 -0.854015
-0.951082 0.225158 -0.211535
-0.665305 0.545175 0.510052
0.784516 0.0847962 -0.614284
0.666117 -0.630939 0.397748
0.288152 0.953758 -0.0855198
-0.098746 -0.96081 -0.259023
0.534728 0.213349 -0.817648
-0.935692 -0.188887 -0.297997
-0.282663 -0.864357 -0.415918
-0.172089 0.62422 0.76206
ITEM: TIMESTEP
8565
ITEM: NUMBER OF ATOMS
54
ITEM: BOX BOUNDS pp pp pp
0.0000000000000000e+00 8.6303750400000006e+00
0.0000000000000000e+00 8.6303750400000006e+00
0.0000000000000000e+00 8.6303750400000006e+00
ITEM: ATOMS c_outsp[1] c_outsp[2] c_outsp[3]
0.417584 0.692014 0.588847
0.374527 -0.806652 -0.45721
-0.961785 0.27363 -0.00976066
0.026549 -0.393905 0.918768
0.599422 0.593433 0.537151
0.83308 0.504191 0.22753
0.316679 -0.929956 -0.186805
-0.325778 -0.932522 0.155792
-0.54921 -0.212867 -0.808119
-0.196006 -0.950964 -0.239269
-0.788116 -0.0728663 0.611199
0.256406 0.864917 -0.43148
0.439225 -0.229726 -0.868509
0.696896 0.693996 0.180848
-0.703103 0.333628 -0.627964
0.44953 -0.764539 -0.461956
-0.536103 0.817708 0.209635
0.811527 0.100928 -0.575533
0.410385 -0.891224 0.193143
-0.101257 -0.993575 -0.0505524
-0.642784 -0.279482 -0.713245
0.606771 0.655234 0.449997
0.933762 0.319202 -0.161857
0.0288869 0.877789 -0.478176
0.29888 0.194365 -0.934287
-0.854069 0.474608 0.21287
-0.768534 -0.00925381 -0.639743
0.137715 0.956545 -0.257013
-0.0179443 0.995436 -0.093724
0.512231 -0.562249 -0.649227
0.79573 -0.493148 -0.351594
-0.594969 -0.704135 -0.387565
-0.22403 0.474215 -0.851429
0.876621 0.0217872 -0.480688
-0.816217 -0.515877 0.260116
-0.222826 0.854918 0.468469
0.00289853 -0.96494 -0.262453
0.909901 -0.213069 0.355923
-0.433473 -0.654021 0.619966
-0.656227 0.569813 -0.494651
0.215824 -0.896801 -0.386222
-0.262865 -0.418618 -0.869288
-0.24975 -0.860013 -0.444975
0.151124 0.493584 -0.856468
-0.935044 0.247345 -0.253994
-0.663517 0.560713 0.495324
0.770238 0.0374543 -0.636655
0.640947 -0.645123 0.415936
0.301465 0.947018 -0.110792
-0.115067 -0.959003 -0.258983
0.575755 0.184069 -0.796634
-0.946117 -0.135742 -0.294003
-0.294062 -0.860928 -0.415128
-0.131673 0.632558 0.763238
ITEM: TIMESTEP
8570
ITEM: NUMBER OF ATOMS
54
ITEM: BOX BOUNDS pp pp pp
0.0000000000000000e+00 8.6303750400000006e+00
0.0000000000000000e+00 8.6303750400000006e+00
0.0000000000000000e+00 8.6303750400000006e+00
ITEM: ATOMS c_outsp[1] c_outsp[2] c_outsp[3]
0.430318 0.678046 0.595886
0.384035 -0.79755 -0.465221
-0.955994 0.292818 0.0182754
0.0121209 -0.411462 0.911346
0.614596 0.561107 0.554464
0.851851 0.462516 0.245822
0.325926 -0.92859 -0.177461
-0.348653 -0.927657 0.133764
-0.514684 -0.176245 -0.83907
-0.217875 -0.95185 -0.215665
-0.811254 -0.0404884 0.583291
0.309267 0.839388 -0.446971
0.469769 -0.226433 -0.853255
0.709842 0.685207 0.163143
-0.698343 0.363888 -0.616362
0.426912 -0.779808 -0.457871
-0.495686 0.840828 0.217492
0.818572 0.0821005 -0.568507
0.368356 -0.914541 0.167118
-0.145098 -0.989244 -0.0185382
-0.668228 -0.267751 -0.694104
0.623252 0.632253 0.460232
0.950583 0.280386 -0.133325
0.0242487 0.888181 -0.458854
0.302372 0.193432 -0.933357
-0.833074 0.508908 0.216794
-0.768876 0.0119944 -0.639286
0.184957 0.946219 -0.265445
-0.00583977 0.998034 -0.0624008
0.495988 -0.594336 -0.633057
0.782508 -0.511164 -0.355518
-0.620769 -0.664026 -0.416791
-0.198831 0.499337 -0.843284
0.887342 -0.00559127 -0.461077
-0.842992 -0.49431 0.212183
-0.201097 0.854398 0.479129
-0.00517037 -0.964765 -0.263062
0.915982 -0.227967 0.330162
-0.518385 -0.626915 0.581596
-0.631595 0.582313 -0.511859
0.177275 -0.914559 -0.363531
-0.280729 -0.417262 -0.86434
-0.272576 -0.858638 -0.4341
0.131853 0.496558 -0.85793
-0.916339 0.269057 -0.296533
-0.660183 0.578272 0.479334
0.752899 -0.00972081 -0.658064
0.614294 -0.658857 0.434224
0.313485 0.939746 -0.136401
-0.131838 -0.956811 -0.259097
0.614585 0.151783 -0.774111
-0.953412 -0.0821825 -0.290262
-0.30545 -0.857217 -0.414584
-0.0901856 0.639076 0.763838
ITEM: TIMESTEP
8575
ITEM: NUMBER OF ATOMS
54
ITEM: BOX BOUNDS pp pp pp
0.0000000000000000e+00 8.6303750400000006e+00
0.0000000000000000e+00 8.6303750400000006e+00
0.0000000000000000e+00 8.6303750400000006e+00
ITEM: ATOMS c_outsp[1] c_outsp[2] c_outsp[3]
0.441815 0.663064 0.604273
0.392802 -0.788457 -0.47333
-0.949453 0.310566 0.0456875
-0.00247941 -0.429223 0.903195
0.6291 0.527106 0.571308
0.867856 0.42031 0.264886
0.335607 -0.926877 -0.168127
-0.370209 -0.922283 0.111083
-0.477516 -0.139634 -0.867456
-0.239202 -0.951814 -0.191915
-0.832147 -0.00846422 0.55449
0.359856 0.811332 -0.4607
0.500471 -0.22442 -0.83616
0.722239 0.676102 0.145799
-0.692101 0.394259 -0.604613
0.402761 -0.794649 -0.454221
-0.455455 0.86147 0.224568
0.8249 0.0636721 -0.561681
0.32377 -0.935492 0.141521
-0.189713 -0.981755 0.0128912
-0.692264 -0.255649 -0.674844
0.638417 0.608795 0.470948
0.964899 0.240905 -0.104572
0.0197091 0.898672 -0.438179
0.305655 0.193199 -0.932335
-0.811464 0.541232 0.220442
-0.768421 0.0330946 -0.639088
0.232069 0.933292 -0.274064
0.00583281 0.9995 -0.031071
0.479161 -0.625055 -0.616207
0.768795 -0.529057 -0.35924
-0.64408 -0.621829 -0.445521
-0.171536 0.522228 -0.835376
0.896995 -0.0336899 -0.440754
-0.866529 -0.47163 0.16338
-0.179099 0.85323 0.489818
-0.01446 -0.9646 -0.26332
0.921418 -0.242645 0.3035
-0.598856 -0.593951 0.537209
-0.606695 0.594064 -0.528213
0.136147 -0.929795 -0.341973
-0.299376 -0.414981 -0.859165
-0.295237 -0.856283 -0.423809
0.113589 0.500211 -0.858421
-0.894966 0.290034 -0.338992
-0.655067 0.597763 0.462133
0.732484 -0.0565044 -0.678435
0.586163 -0.672011 0.452563
0.324109 0.932001 -0.162255
-0.14908 -0.954197 -0.259391
0.650951 0.116617 -0.750109
-0.957561 -0.0283857 -0.286831
-0.316845 -0.85321 -0.414297
-0.0477243 0.643725 0.763768
ITEM: TIMESTEP
8580
ITEM: NUMBER OF ATOMS
54
ITEM: BOX BOUNDS pp pp pp
0.0000000000000000e+00 8.6303750400000006e+00
0.0000000000000000e+00 8.6303750400000006e+00
0.0000000000000000e+00 8.6303750400000006e+00
ITEM: ATOMS c_outsp[1] c_outsp[2] c_outsp[3]
0.452036 0.647043 0.614002
0.400829 -0.77939 -0.481547
-0.942335 0.326743 0.0724083
-0.0172712 -0.447154 0.89429
0.642731 0.49149 0.587652
0.881061 0.377762 0.284654
0.345782 -0.924769 -0.158859
-0.390421 -0.916439 0.0878082
-0.437752 -0.103282 -0.893144
-0.259924 -0.950891 -0.168062
-0.850867 0.023037 0.524876
0.408086 0.781044 -0.47269
0.531155 -0.223679 -0.817216
0.734079 0.666732 0.128828
-0.684366 0.42462 -0.592741
0.377006 -0.808973 -0.451032
-0.415615 0.879763 0.230826
0.83056 0.0457128 -0.555049
0.276804 -0.953851 0.116392
-0.234901 -0.97104 0.0436273
-0.714865 -0.24347 -0.655508
0.65223 0.584947 0.482113
0.976691 0.200872 -0.0756598
0.015341 0.909156 -0.416172
0.308765 0.193661 -0.931214
-0.789417 0.571608 0.223795
-0.767172 0.0540221 -0.639162
0.278888 0.917711 -0.282892
0.0170249 0.999855 0.000224175
0.461804 -0.654457 -0.598684
0.754563 -0.546824 -0.362792
-0.664772 -0.57766 -0.473695
-0.142367 0.542753 -0.827738
0.905532 -0.0624209 -0.419662
-0.886721 -0.448051 0.113915