ITEM: TIMESTEP
8000
ITEM: NUMBER OF ATOMS
54
ITEM: BOX BOUNDS pp pp pp
0.0000000000000000e+00 8.6303750400000006e+00
0.0000000000000000e+00 8.6303750400000006e+00
0.0000000000000000e+00 8.6303750400000006e+00
ITEM: ATOMS c_outsp[1] c_outsp[2] c_outsp[3]
0.639088 0.715167 -0.283023
-0.266806 -0.963174 -0.033332
0.0286624 -0.80994 -0.585812
-0.328719 0.126676 -0.935894
0.894813 0.412358 -0.171085
0.844332 0.151606 -0.513926
0.498921 0.651311 -0.571727
-0.206104 -0.911692 -0.355441
0.886664 0.295238 -0.355896
-0.365723 -0.630849 -0.684308
-0.634727 -0.747171 -0.197124
-0.798696 0.369498 -0.474928
0.0157146 0.934168 -0.356486
-0.984707 -0.136211 -0.108624
-0.456407 0.828625 -0.32415
-0.271684 0.208164 -0.939604
-0.3897 0.5605 -0.730735
0.365704 0.677228 0.638453
-0.926275 -0.144974 0.347845
-0.509741 0.497417 0.701955
0.479671 -0.215453 0.850586
0.592181 0.0648427 -0.803192
-0.488694 0.799444 -0.349383
-0.11865 -0.978044 -0.171322
-0.558908 0.812404 0.166194
-0.204029 -0.00681203 -0.978941
-0.301114 -0.63601 -0.710508
0.184176 -0.982808 -0.0129784
0.443015 -0.071679 0.893644
0.0855285 0.987451 -0.132759
0.51152 -0.515068 -0.687788
-0.38554 0.403284 0.829892
-0.411151 0.787231 -0.45959
0.90717 -0.410466 0.0925231
-0.953972 0.200437 -0.223073
-0.598126 -0.391327 -0.699363
0.981075 -0.0268154 0.191761
0.709438 -0.587207 0.389725
0.965506 0.0427003 -0.256855
-0.012224 0.437985 0.898899
0.213491 -0.919197 0.330905
0.536351 -0.234006 -0.810906
-0.179714 -0.0247938 -0.983406
0.675803 -0.387046 0.627285
0.302178 -0.486979 -0.819475
-0.100558 0.527096 -0.843835
-0.357462 -0.82481 -0.438075
-0.364294 -0.882958 -0.296101
-0.746791 0.662807 -0.0546808
0.0843853 0.580871 0.80961
-0.133129 -0.982265 0.132028
0.332798 -0.469169 0.818001
-0.576988 -0.784967 -0.225636
0.852492 0.447294 -0.270528
ITEM: TIMESTEP
8005
ITEM: NUMBER OF ATOMS
54
ITEM: BOX BOUNDS pp pp pp
0.0000000000000000e+00 8.6303750400000006e+00
0.0000000000000000e+00 8.6303750400000006e+00
0.0000000000000000e+00 8.6303750400000006e+00
ITEM: ATOMS c_outsp[1] c_outsp[2] c_outsp[3]
0.689011 0.673127 -0.268633
-0.309645 -0.948272 -0.0700023
-0.0393516 -0.813825 -0.579777
-0.333916 0.169282 -0.927278
0.90632 0.39526 -0.14951
0.831153 0.109681 -0.545119
0.555149 0.644971 -0.525187
-0.247297 -0.892273 -0.377747
0.908997 0.244729 -0.337389
-0.400089 -0.638734 -0.657227
-0.65951 -0.714713 -0.232877
-0.767623 0.4074 -0.494752
0.0118583 0.938077 -0.346224
-0.988909 -0.101337 -0.10858
-0.436854 0.834054 -0.336916
-0.275557 0.217537 -0.936347
-0.412264 0.532676 -0.739118
0.396122 0.692521 0.602912
-0.92221 -0.145627 0.358219
-0.462224 0.543535 0.700656
0.49581 -0.238138 0.835142
0.580774 0.102062 -0.807642
-0.4376 0.823509 -0.361025
-0.144283 -0.972285 -0.183969
-0.54921 0.820097 0.160653
-0.218084 -0.0280545 -0.975527
-0.346831 -0.610261 -0.712243
0.165188 -0.986114 -0.0171188
0.431377 -0.0879722 0.897873
0.132261 0.98024 -0.147092
0.48085 -0.558634 -0.675804
-0.439935 0.364829 0.820583
-0.397499 0.810346 -0.430504
0.90996 -0.406548 0.0818075
-0.950404 0.219274 -0.220569
-0.589535 -0.35422 -0.725932
0.979476 -0.0212927 0.200434
0.685065 -0.627151 0.370632
0.976456 0.0134999 -0.215294
-0.00222342 0.387971 0.921669
0.177547 -0.930062 0.321656
0.571063 -0.207249 -0.794314
-0.179347 -0.0243237 -0.983485
0.666026 -0.380291 0.641707
0.344275 -0.487312 -0.802497
-0.0465441 0.490463 -0.870218
-0.377141 -0.828067 -0.414814
-0.350296 -0.892436 -0.284342
-0.72422 0.685114 -0.0782602
0.107802 0.566006 0.817323
-0.133864 -0.981821 0.134562
0.28142 -0.451733 0.846605
-0.600485 -0.75914 -0.251246
0.859036 0.441539 -0.259036
ITEM: TIMESTEP
8010
ITEM: NUMBER OF ATOMS
54
ITEM: BOX BOUNDS pp pp pp
0.0000000000000000e+00 8.6303750400000006e+00
0.0000000000000000e+00 8.6303750400000006e+00
0.0000000000000000e+00 8.6303750400000006e+00
ITEM: ATOMS c_outsp[1] c_outsp[2] c_outsp[3]
0.735737 0.62776 -0.254182
-0.350553 -0.930553 -0.105757
-0.10755 -0.813333 -0.571771
-0.338403 0.210774 -0.917092
0.916612 0.378235 -0.129463
0.814744 0.0670869 -0.575926
0.608923 0.633482 -0.477403
-0.285787 -0.87039 -0.400933
0.928422 0.192737 -0.317623
-0.4361 -0.643329 -0.629241
-0.681731 -0.680334 -0.269052
-0.733799 0.444359 -0.513892
0.00948168 0.942285 -0.334678
-0.991724 -0.0672009 -0.109393
-0.416322 0.839162 -0.349975
-0.279342 0.228199 -0.932681
-0.436603 0.506672 -0.743412
0.426088 0.706083 0.565593
-0.917892 -0.146088 0.368962
-0.413058 0.586846 0.696416
0.509749 -0.263737 0.818901
0.569113 0.140421 -0.810181
-0.385148 0.843964 -0.373343
-0.171239 -0.965376 -0.196791
-0.539246 0.827655 0.155562
-0.232932 -0.0467013 -0.971371
-0.389848 -0.580923 -0.714526
0.14606 -0.989058 -0.0207642
0.420311 -0.104752 0.901313
0.17756 0.970574 -0.162663
0.44598 -0.599652 -0.664469
-0.493462 0.327523 0.805744
-0.383039 0.83156 -0.402229
0.912951 -0.401601 0.0723703
-0.946264 0.238507 -0.218402
-0.577865 -0.318961 -0.751223
0.977589 -0.016228 0.209894
0.660396 -0.664915 0.348949
0.984633 -0.0163669 -0.173867
0.00690169 0.335587 0.941984
0.14301 -0.939304 0.311861
0.606102 -0.18219 -0.77424
-0.177745 -0.0230717 -0.983806
0.65694 -0.371945 0.65581
0.38643 -0.486518 -0.783564
0.00488091 0.448285 -0.893877
-0.396605 -0.829581 -0.393064
-0.335552 -0.901284 -0.274029
-0.700952 0.705809 -0.102469
0.130706 0.549413 0.825264
-0.135005 -0.981148 0.138285
0.230024 -0.431354 0.872366
-0.621438 -0.732775 -0.277229
0.865906 0.435604 -0.245878
ITEM: TIMESTEP
8015
ITEM: NUMBER OF ATOMS
54
ITEM: BOX BOUNDS pp pp pp
0.0000000000000000e+00 8.6303750400000006e+00
0.0000000000000000e+00 8.6303750400000006e+00
0.0000000000000000e+00 8.6303750400000006e+00
ITEM: ATOMS c_outsp[1] c_outsp[2] c_outsp[3]
0.779039 0.579347 -0.239698
-0.389383 -0.910302 -0.14047
-0.175531 -0.80843 -0.561809
-0.342213 0.251109 -0.905447
0.925794 0.361371 -0.110977
0.795019 0.0239343 -0.606112
0.659989 0.616925 -0.42874
-0.321387 -0.846282 -0.424872
0.944743 0.139508 -0.296646
-0.473472 -0.644425 -0.60045
-0.701245 -0.644151 -0.305492
-0.697222 0.480175 -0.532272
0.00873363 0.946713 -0.321959
-0.993238 -0.0339784 -0.111013
-0.394838 0.843828 -0.363398
-0.282977 0.240081 -0.928593
-0.462413 0.482832 -0.743671
0.455431 0.717856 0.526559
-0.913332 -0.146322 0.380018
-0.362482 0.627209 0.689358
0.521204 -0.292035 0.801911
0.557274 0.179764 -0.810636
-0.331608 0.860722 -0.386256
-0.19949 -0.957209 -0.209655
-0.529068 0.835053 0.15091
-0.248375 -0.0626651 -0.966635
-0.429851 -0.548173 -0.71745
0.126758 -0.991644 -0.0239635
0.409825 -0.122077 0.903958
0.221288 0.958556 -0.179448
0.40717 -0.637739 -0.653836
-0.545761 0.291547 0.785586
-0.367817 0.850969 -0.374916
0.916093 -0.39579 0.0642174
-0.9415 0.25819 -0.216599
-0.563419 -0.285778 -0.775171
0.975407 -0.0116693 0.220101
0.635641 -0.70033 0.324806
0.990054 -0.0467969 -0.132679
0.0151516 0.280944 0.959605
0.109927 -0.947073 0.30161
0.641235 -0.158934 -0.750705
-0.174827 -0.0211931 -0.984371
0.648503 -0.362147 0.669548
0.42848 -0.484524 -0.762654
0.0531734 0.400926 -0.914566
-0.415838 -0.82948 -0.372883
-0.320065 -0.909511 -0.265231
-0.677088 0.724811 -0.127283
0.153046 0.531124 0.833357
-0.136614 -0.980233 0.14311
0.178914 -0.40809 0.895239
-0.639846 -0.706029 -0.303511
0.873054 0.429429 -0.231013
ITEM: TIMESTEP
8020
ITEM: NUMBER OF ATOMS
54
ITEM: BOX BOUNDS pp pp pp
0.0000000000000000e+00 8.6303750400000006e+00
0.0000000000000000e+00 8.6303750400000006e+00
0.0000000000000000e+00 8.6303750400000006e+00
ITEM: ATOMS c_outsp[1] c_outsp[2] c_outsp[3]
0.818711 0.528959 -0.223416
-0.426156 -0.887404 -0.1758
-0.241855 -0.798998 -0.550553
-0.344047 0.289927 -0.89307
0.934215 0.344664 -0.0919218
0.772326 -0.0195021 -0.634927
0.707203 0.596927 -0.378869
-0.355022 -0.81986 -0.449209
0.957629 0.0858315 -0.274916
-0.512375 -0.643044 -0.569181
-0.716879 -0.606963 -0.343046
-0.658552 0.515046 -0.548668
0.00752053 0.951992 -0.306029
-0.993658 -0.000278704 -0.112445
-0.372406 0.848158 -0.376751
-0.286233 0.254945 -0.92362
-0.487933 0.461642 -0.740815
0.484459 0.727575 0.485731
-0.909246 -0.14668 0.389559
-0.310933 0.664163 0.679859
0.530937 -0.32342 0.783266
0.545253 0.216849 -0.809738
-0.277674 0.874029 -0.39871
-0.227301 -0.94789 -0.223245
-0.519514 0.842061 0.145046
-0.265025 -0.0748812 -0.96133
-0.466682 -0.510643 -0.722116
0.103318 -0.994362 -0.0238809
0.399335 -0.144764 0.905304
0.265504 0.943386 -0.198825
0.366041 -0.671561 -0.64422
-0.596547 0.25569 0.760759
-0.351131 0.868785 -0.34917
0.918735 -0.390492 0.0586711
-0.936849 0.27687 -0.213673
-0.545677 -0.256034 -0.797925
0.973453 -0.00826085 0.228738
0.608587 -0.736333 0.295696
0.99273 -0.0798786 -0.0900342
0.0241051 0.225871 0.973859
0.078554 -0.953691 0.290348
0.676669 -0.135858 -0.723645
-0.17179 -0.0179691 -0.98497
0.640642 -0.350604 0.683121
0.47025 -0.479934 -0.740627
0.0988878 0.349937 -0.931539
-0.43419 -0.827781 -0.355327
-0.304857 -0.916922 -0.257519
-0.65347 0.741199 -0.153623
0.177335 0.512489 0.840183
-0.138153 -0.979142 0.148976
0.128626 -0.379888 0.916046
-0.656566 -0.678673 -0.329127
0.879745 0.424631 -0.213864
ITEM: TIMESTEP
8025
ITEM: NUMBER OF ATOMS
54
ITEM: BOX BOUNDS pp pp pp
0.0000000000000000e+00 8.6303750400000006e+00
0.0000000000000000e+00 8.6303750400000006e+00
0.0000000000000000e+00 8.6303750400000006e+00
ITEM: ATOMS c_outsp[1] c_outsp[2] c_outsp[3]
0.854645 0.476308 -0.20667
-0.460492 -0.862394 -0.210293
-0.306898 -0.785235 -0.537791
-0.344879 0.327353 -0.879715
0.941692 0.328295 -0.0737506
0.746407 -0.0631353 -0.662488
0.751206 0.572502 -0.32853
-0.385715 -0.791548 -0.473999
0.967146 0.0316232 -0.252245
-0.55224 -0.637928 -0.536731
-0.729224 -0.568598 -0.380695
-0.617406 0.548493 -0.563883
0.00773527 0.957482 -0.28839
-0.992904 0.0327646 -0.114316
-0.348942 0.851923 -0.390471
-0.289149 0.271293 -0.918038
-0.513955 0.443167 -0.734475
0.512707 0.735303 0.44324
-0.905204 -0.146973 0.398753
-0.258507 0.697855 0.667961
0.537865 -0.357225 0.763604
0.533292 0.253871 -0.806938
-0.223324 0.883683 -0.411376
-0.255989 -0.937214 -0.236855
-0.51001 0.848861 0.139013
-0.28201 -0.0840486 -0.955723
-0.499895 -0.469526 -0.727771
0.0786027 -0.99665 -0.0226138
0.38906 -0.169311 0.90552
0.308651 0.925504 -0.219493
0.322003 -0.701719 -0.635535
-0.645565 0.221104 0.730998
-0.333597 0.88504 -0.324681
0.921312 -0.384943 0.0548086
-0.93177 0.295582 -0.2108
-0.525753 -0.229105 -0.819204
0.971387 -0.00557112 0.237435
0.580814 -0.770172 0.263609
0.992383 -0.113781 -0.0472325
0.032584 0.169214 0.985041
0.0487542 -0.959179 0.278567
0.711803 -0.114368 -0.693005
-0.167695 -0.0140271 -0.985739
0.633405 -0.337871 0.696162
0.511656 -0.473729 -0.716791
0.140881 0.294839 -0.945104
-0.45221 -0.824687 -0.339703
-0.289252 -0.923714 -0.251169
-0.629793 0.755473 -0.180614
0.201765 0.492475 0.846616
-0.140079 -0.97781 0.155775
0.0793447 -0.348332 0.934007
-0.671058 -0.651088 -0.354635
0.886463 0.41979 -0.194831
ITEM: TIMESTEP
8030
ITEM: NUMBER OF ATOMS
54
ITEM: BOX BOUNDS pp pp pp
0.0000000000000000e+00 8.6303750400000006e+00
0.0000000000000000e+00 8.6303750400000006e+00
0.0000000000000000e+00 8.6303750400000006e+00
ITEM: ATOMS c_outsp[1] c_outsp[2] c_outsp[3]
0.886712 0.421508 -0.18993
-0.492265 -0.835711 -0.243441
-0.370535 -0.767253 -0.523475
-0.345076 0.363469 -0.86534
0.948256 0.312352 -0.0569845
0.717154 -0.106823 -0.688679
0.792007 0.54345 -0.278184
-0.413088 -0.76169 -0.499185
0.973249 -0.0229485 -0.228605
-0.592595 -0.62862 -0.503655
-0.738468 -0.529085 -0.418012
-0.573679 0.580221 -0.578131
0.0100629 0.962887 -0.269719
-0.991051 0.0646407 -0.116785
-0.324483 0.854932 -0.404724
-0.291709 0.288561 -0.911942
-0.540495 0.427606 -0.724581
0.539883 0.741048 0.399217
-0.901071 -0.147081 0.407969
-0.205392 0.728303 0.65375
0.541482 -0.393006 0.743198
0.521504 0.291431 -0.801936
-0.168724 0.889601 -0.424431
-0.285913 -0.925031 -0.250144
-0.500401 0.855491 0.133168
-0.298903 -0.0904078 -0.949991
-0.529134 -0.425446 -0.734175
0.0535756 -0.998344 -0.0209277
0.379083 -0.194561 0.904678
0.350094 0.905177 -0.241016
0.275052 -0.728197 -0.627755
-0.692477 0.188241 0.696449
-0.315407 0.899811 -0.301427
0.92392 -0.378996 0.0522793
-0.926029 0.314709 -0.208393
-0.504223 -0.204822 -0.838932
0.969074 -0.00348814 0.246744
0.553144 -0.800884 0.229383
0.989002 -0.147827 -0.00480804
0.0402181 0.110709 0.993039
0.0204746 -0.963624 0.266477
0.74626 -0.0950065 -0.658839
-0.162183 -0.00973441 -0.986713
0.626762 -0.324206 0.708562
0.552528 -0.466224 -0.690904
0.178414 0.235836 -0.955275
-0.470067 -0.820315 -0.325761
-0.273016 -0.929943 -0.24631
-0.606018 0.767786 -0.207959
0.225666 0.470787 0.852898
-0.142572 -0.976204 0.163398
0.0313143 -0.314054 0.948888
-0.683164 -0.623501 -0.380175
0.893301 0.414396 -0.17404
ITEM: TIMESTEP
8035
ITEM: NUMBER OF ATOMS
54
ITEM: BOX BOUNDS pp pp pp
0.0000000000000000e+00 8.6303750400000006e+00
0.0000000000000000e+00 8.6303750400000006e+00
0.0000000000000000e+00 8.6303750400000006e+00
ITEM: ATOMS c_outsp[1] c_outsp[2] c_outsp[3]
0.914802 0.364872 -0.17322
-0.521426 -0.8077 -0.2752
-0.432391 -0.745161 -0.507713
-0.344672 0.398298 -0.850035
0.954005 0.296887 -0.041617
0.684573 -0.150373 -0.713265
0.829381 0.509991 -0.228117
-0.437066 -0.730554 -0.524657
0.975879 -0.0775775 -0.204064
-0.633061 -0.615021 -0.470087
-0.74457 -0.48861 -0.454835
-0.527438 0.610026 -0.591335
0.0145968 0.968085 -0.250195
-0.988224 0.0952206 -0.119774
-0.299088 0.857047 -0.419543
-0.293864 0.306638 -0.905327
-0.56719 0.415179 -0.711282
0.565808 0.744782 0.353781
-0.89688 -0.146968 0.417142
-0.151819 0.755463 0.63736
0.541576 -0.430443 0.72209
0.509966 0.329342 -0.79465
-0.114143 0.891794 -0.437807
-0.316981 -0.911246 -0.26297
-0.490736 0.861933 0.127471
-0.315489 -0.0939735 -0.944265
-0.554101 -0.378697 -0.741324
0.0282326 -0.999423 -0.0188798
0.369351 -0.220541 0.902741
0.389725 0.882483 -0.26332
0.225523 -0.750745 -0.620904
-0.736963 0.15718 0.657405
-0.296553 0.913202 -0.279497
0.926501 -0.372814 0.0510447
-0.91958 0.334273 -0.20648
-0.481438 -0.183259 -0.857107
0.9665 -0.00205013 0.25666
0.52585 -0.828338 0.193232
0.982615 -0.181902 0.0371425
0.0470462 0.0505538 0.997613
-0.00629463 -0.967151 0.254123
0.779765 -0.077878 -0.621209
-0.155225 -0.00526511 -0.987865
0.620675 -0.309748 0.720291
0.592677 -0.457413 -0.662954
0.211029 0.173475 -0.961963
-0.487762 -0.814748 -0.313486
-0.256165 -0.935605 -0.242945
-0.582284 0.778095 -0.235613
0.248991 0.447472 0.858936
-0.145653 -0.974315 0.171741
-0.0151776 -0.277181 0.960698
-0.692944 -0.596041 -0.405666
0.900161 0.408365 -0.151485
ITEM: TIMESTEP
8040
ITEM: NUMBER OF ATOMS
54
ITEM: BOX BOUNDS pp pp pp
0.0000000000000000e+00 8.6303750400000006e+00
0.0000000000000000e+00 8.6303750400000006e+00
0.0000000000000000e+00 8.6303750400000006e+00
ITEM: ATOMS c_outsp[1] c_outsp[2] c_outsp[3]
0.938836 0.306714 -0.15657
-0.547956 -0.778708 -0.305546
-0.492107 -0.719102 -0.490635
-0.343692 0.431873 -0.833883
0.959033 0.281944 -0.0276346
0.648699 -0.193572 -0.736016
0.863111 0.472379 -0.178598
-0.457601 -0.6984 -0.550308
0.975016 -0.131953 -0.178693
-0.673246 -0.597074 -0.436168
-0.747516 -0.447362 -0.491006
-0.478768 0.637707 -0.603416
0.0214039 0.972952 -0.230014
-0.984556 0.124391 -0.123192
-0.272832 0.858128 -0.434947
-0.295573 0.32541 -0.89819
-0.593661 0.406071 -0.694747
0.590305 0.746494 0.307062
-0.892667 -0.146595 0.42621
-0.0980138 0.779308 0.618928
0.537962 -0.469194 0.700325
0.498745 0.367408 -0.785025
-0.0598407 0.890293 -0.45144
-0.349076 -0.895775 -0.275196
-0.481065 0.868172 0.12188
-0.331551 -0.0947814 -0.938664
-0.574514 -0.329605 -0.749196
0.0025766 -0.99986 -0.0165258
0.359802 -0.247265 0.899668
0.427448 0.857499 -0.286327
0.173768 -0.769147 -0.614995
-0.778725 0.127979 0.614173
-0.277022 0.925308 -0.258968
0.928996 -0.366552 0.0510582
-0.91237 0.354289 -0.205084
-0.457744 -0.16446 -0.873741
0.963644 -0.00129328 0.267185
0.499215 -0.852431 0.155392
0.973253 -0.215898 0.0785289
0.0531235 -0.0110275 0.998527
-0.0315713 -0.969877 0.24154
0.812033 -0.0630837 -0.580192
-0.146813 -0.00079591 -0.989164
0.615106 -0.294634 0.731324
0.631907 -0.447308 -0.632937
0.238311 0.108351 -0.965126
-0.505299 -0.808059 -0.302844
-0.238716 -0.940693 -0.241064
-0.558735 0.786366 -0.263524
0.271703 0.422586 0.864638
-0.149331 -0.972136 0.180698
-0.059856 -0.237851 0.969456
-0.700462 -0.568828 -0.43103
0.906936 0.401614 -0.127173
ITEM: TIMESTEP
8045
ITEM: NUMBER OF ATOMS
54
ITEM: BOX BOUNDS pp pp pp
0.0000000000000000e+00 8.6303750400000006e+00
0.0000000000000000e+00 8.6303750400000006e+00
0.0000000000000000e+00 8.6303750400000006e+00
ITEM: ATOMS c_outsp[1] c_outsp[2] c_outsp[3]
0.958759 0.247345 -0.140005
-0.571859 -0.74907 -0.334471
-0.549347 -0.689251 -0.472389
-0.342155 0.464232 -0.816957
0.963424 0.267562 -0.0150173
0.60959 -0.236188 -0.756713
0.893 0.430908 -0.129878
-0.47467 -0.665482 -0.57604
0.970678 -0.185765 -0.152566
-0.712752 -0.574758 -0.402042
-0.747312 -0.405537 -0.526369
-0.427776 0.663065 -0.614291
0.0305226 0.977357 -0.209383
-0.980187 0.152056 -0.126938
-0.245802 0.858039 -0.450945
-0.296802 0.344756 -0.890535
-0.61952 0.400424 -0.675171
0.613201 0.746188 0.259206
-0.888471 -0.145923 0.435115
-0.0441952 0.799836 0.598589
0.530486 -0.508898 0.677944
0.487897 0.405428 -0.773036
-0.00607011 0.885148 -0.46527
-0.382067 -0.878542 -0.286687
-0.471437 0.874191 0.116347
-0.346879 -0.0928884 -0.933299
-0.590115 -0.278531 -0.75775
-0.0233822 -0.99963 -0.0139195
0.350362 -0.274743 0.895412
0.463171 0.830304 -0.309948
0.120153 -0.783215 -0.610031
-0.817488 0.100671 0.567078
-0.256792 0.936219 -0.239901
0.931346 -0.360366 0.0522659
-0.904347 0.374768 -0.204221
-0.433478 -0.148438 -0.888855
0.960484 -0.00125252 0.278332
0.473524 -0.873094 0.116111
0.960948 -0.249709 0.119266
0.0585219 -0.073777 0.995556
-0.0553794 -0.971908 0.228751
0.842767 -0.0507194 -0.535884
-0.136959 0.00349645 -0.990571
0.610025 -0.278997 0.74164
0.670018 -0.435947 -0.600855
0.259891 0.0410992 -0.964763
-0.522684 -0.800307 -0.293785
-0.220687 -0.945194 -0.240637
-0.535517 0.792571 -0.291637
0.293763 0.396186 0.869908
-0.153603 -0.969661 0.190165
-0.102459 -0.196217 0.975193
-0.705797 -0.541978 -0.456192
0.913508 0.394054 -0.101119
ITEM: TIMESTEP
8050
ITEM: NUMBER OF ATOMS
54
ITEM: BOX BOUNDS pp pp pp
0.0000000000000000e+00 8.6303750400000006e+00
0.0000000000000000e+00 8.6303750400000006e+00
0.0000000000000000e+00 8.6303750400000006e+00
ITEM: ATOMS c_outsp[1] c_outsp[2] c_outsp[3]
0.974545 0.18707 -0.123555
-0.593163 -0.719117 -0.361978
-0.6038 -0.655814 -0.453138
-0.340068 0.495418 -0.799322
0.967257 0.253771 -0.00373921
0.567334 -0.277974 -0.775153
0.918871 0.385902 -0.082191
-0.488272 -0.632045 -0.601755
0.962915 -0.238706 -0.125754
-0.751179 -0.548097 -0.367857
-0.743989 -0.363333 -0.560776
-0.374589 0.685902 -0.623877
0.041962 0.981174 -0.188514
-0.975259 0.178138 -0.130904
-0.218097 0.856649 -0.467533
-0.297522 0.364553 -0.882373
-0.644372 0.398344 -0.652768
0.634332 0.743887 0.210369
-0.884331 -0.144914 0.4438
0.00942603 0.817059 0.576476
0.519028 -0.549179 0.654991
0.477469 0.443199 -0.758681
0.0469245 0.87643 -0.479237
-0.415802 -0.859483 -0.297316
-0.461906 0.879978 0.110823
-0.361262 -0.0883706 -0.928267
-0.600674 -0.22587 -0.766925
-0.0496262 -0.998706 -0.0111121
0.340947 -0.302971 0.889923
0.496807 0.80098 -0.334088
0.0650536 -0.792797 -0.606004
-0.853 0.0752678 0.516455
-0.235838 0.946015 -0.222342
0.933495 -0.354407 0.0546076
-0.895453 0.395713 -0.2039
-0.408966 -0.135177 -0.902482
0.956989 -0.00196225 0.290116
0.449061 -0.890292 0.0756588
0.945732 -0.283236 0.159276
0.0633312 -0.137404 0.988488
-0.0777476 -0.973344 0.215769
0.871662 -0.0408754 -0.4884
-0.125701 0.00743787 -0.99204
0.605406 -0.262966 0.75122
0.706808 -0.423383 -0.566718
0.275456 -0.027609 -0.960917
-0.539923 -0.791547 -0.286246
-0.202097 -0.949093 -0.241617
-0.512782 0.796694 -0.319896
0.31514 0.368335 0.874652
-0.158454 -0.966889 0.200043
-0.14274 -0.152443 0.97795
-0.709032 -0.515596 -0.481077
0.919744 0.385603 -0.0733548
ITEM: TIMESTEP
8055
ITEM: NUMBER OF ATOMS
54
ITEM: BOX BOUNDS pp pp pp
0.0000000000000000e+00 8.6303750400000006e+00
0.0000000000000000e+00 8.6303750400000006e+00
0.0000000000000000e+00 8.6303750400000006e+00
ITEM: ATOMS c_outsp[1] c_outsp[2] c_outsp[3]
0.986191 0.126191 -0.107251
-0.611916 -0.689165 -0.388084
-0.655184 -0.619025 -0.43306
-0.337431 0.525474 -0.781036
0.970605 0.240596 0.00623048
0.522048 -0.318669 -0.791149
0.94057 0.337714 -0.0357492
-0.498429 -0.598318 -0.627363
0.951816 -0.290478 -0.098332
-0.788133 -0.517152 -0.333765
-0.737599 -0.320949 -0.594087
-0.319357 0.706028 -0.632088
0.0557018 0.984276 -0.167623
-0.96992 0.202579 -0.13497
-0.189831 0.853835 -0.484696
-0.297713 0.384677 -0.873722
-0.667821 0.399893 -0.627774
0.653545 0.739628 0.160719
-0.880286 -0.143525 0.452215
0.062647 0.83101 0.552719
0.503505 -0.589647 0.631506
0.467495 0.480521 -0.741989
0.0989092 0.864227 -0.493284
-0.450114 -0.838552 -0.306964
-0.452524 0.885519 0.105253
-0.374496 -0.0813236 -0.923655
-0.605996 -0.17205 -0.776639
-0.0761309 -0.997065 -0.00815141
0.331464 -0.331934 0.883148
0.528276 0.769609 -0.358645
0.00885492 -0.797772 -0.602894
-0.885032 0.0517596 0.462643
-0.214131 0.954766 -0.206324
0.935391 -0.348823 0.0580179
-0.885632 0.417123 -0.20412
-0.384523 -0.124634 -0.914663
0.953124 -0.0034568 0.30256
0.426103 -0.904023 0.0343154
0.927636 -0.316381 0.198482
0.0676592 -0.201584 0.977132
-0.0987075 -0.974275 0.202597
0.898405 -0.0336358 -0.437878
-0.113097 0.0108596 -0.993525
0.601231 -0.246665 0.760051
0.742071 -0.409692 -0.53055
0.284753 -0.097074 -0.953673
-0.55702 -0.781822 -0.280149
-0.182969 -0.952374 -0.24394
-0.490684 0.798725 -0.348235
0.335805 0.339101 0.878775
-0.163858 -0.963821 0.210236
-0.180463 -0.106703 0.977777
-0.710258 -0.489782 -0.505615
0.925507 0.376175 -0.0439227
ITEM: TIMESTEP
8060
ITEM: NUMBER OF ATOMS
54
ITEM: BOX BOUNDS pp pp pp
0.0000000000000000e+00 8.6303750400000006e+00
0.0000000000000000e+00 8.6303750400000006e+00
0.0000000000000000e+00 8.6303750400000006e+00
ITEM: ATOMS c_outsp[1] c_outsp[2] c_outsp[3]
0.993716 0.0649969 -0.0911248
-0.62819 -0.659517 -0.412813
-0.703252 -0.579146 -0.412342
-0.334235 0.554447 -0.762152
0.973533 0.228059 0.0149272
0.473875 -0.358003 -0.804535
0.957968 0.286727 0.0092535
-0.50518 -0.564516 -0.652774
0.937501 -0.340794 -0.0703706
-0.823224 -0.482027 -0.299919
-0.728219 -0.27858 -0.626172
-0.262251 0.723263 -0.638838
0.071693 0.986546 -0.146926
-0.964312 0.225342 -0.139009
-0.161133 0.849482 -0.502411
-0.297361 0.405005 -0.864608
-0.689472 0.405088 -0.600444
0.670696 0.733465 0.110433
-0.876372 -0.141714 0.460314
0.115273 0.841734 0.527443
0.48387 -0.629902 0.607531
0.457997 0.517197 -0.723012
0.149661 0.848641 -0.507355
-0.484821 -0.815716 -0.315525
-0.443343 0.890803 0.0995826
-0.386385 -0.0718605 -0.919534
-0.605921 -0.117529 -0.786795
-0.102865 -0.994682 -0.00508175
0.321813 -0.361605 0.87503
0.557501 0.736282 -0.383513
-0.0480536 -0.798052 -0.60067
-0.913381 0.0301182 0.405991
-0.191642 0.962528 -0.191866
0.936981 -0.343757 0.062427
-0.874824 0.438988 -0.20487
-0.360445 -0.116742 -0.925446
0.948845 -0.00577082 0.31569
0.404922 -0.914319 -0.0076251
0.906689 -0.349046 0.236814
0.0716323 -0.26596 0.961319
-0.118292 -0.974781 0.189233
0.922674 -0.029077 -0.384484
-0.0992294 0.013601 -0.994972
0.597486 -0.230214 0.768122
0.775604 -0.394967 -0.492381
0.287595 -0.166576 -0.943155
-0.573981 -0.771167 -0.275403
-0.163328 -0.955015 -0.247528
-0.469378 0.798664 -0.376589
0.355731 0.308554 0.882184
-0.16978 -0.960462 0.220653
-0.215407 -0.059183 0.974729
-0.709573 -0.464629 -0.529742
0.930646 0.365693 -0.0128807
ITEM: TIMESTEP
8065
ITEM: NUMBER OF ATOMS
54
ITEM: BOX BOUNDS pp pp pp
0.0000000000000000e+00 8.6303750400000006e+00
0.0000000000000000e+00 8.6303750400000006e+00
0.0000000000000000e+00 8.6303750400000006e+00
ITEM: ATOMS c_outsp[1] c_outsp[2] c_outsp[3]
0.99716 0.00376613 -0.075212
-0.642071 -0.630458 -0.436195
-0.74779 -0.536459 -0.39118
-0.330463 0.582381 -0.742716
0.976097 0.216178 0.0223903
0.422992 -0.3957 -0.815169
0.970969 0.233342 0.052644
-0.508581 -0.53084 -0.677904
0.92012 -0.389384 -0.0419404
-0.856074 -0.442865 -0.266472
-0.715944 -0.23642 -0.656909
-0.203466 0.737436 -0.644041
0.089859 0.987871 -0.126637
-0.958574 0.246411 -0.142887
-0.13214 0.843488 -0.520641
-0.296458 0.425415 -0.855064
-0.708935 0.413902 -0.571049
0.685661 0.725469 0.0596945
-0.872626 -0.139438 0.46806
0.167119 0.849295 0.500768
0.460117 -0.669539 0.583104
0.448981 0.553041 -0.701828
0.19897 0.829792 -0.521398
-0.51973 -0.790958 -0.322903
-0.434417 0.895819 0.0937541
-0.396736 -0.060112 -0.915963
-0.600335 -0.0627914 -0.79728
-0.129792 -0.991539 -0.00194359
0.311887 -0.391941 0.865511
0.584413 0.701089 -0.408578
-0.105279 -0.79358 -0.599289
-0.937864 0.0102984 0.346849
-0.168344 0.969344 -0.178974
0.938217 -0.339349 0.0677612
-0.862971 0.461295 -0.206128
-0.337012 -0.111411 -0.934885
0.944103 -0.00893948 0.32953
0.385774 -0.921245 -0.0498591
0.88292 -0.381135 0.274205
0.0753958 -0.33014 0.940916
-0.136536 -0.974936 0.175666
0.944143 -0.0272667 -0.328407
-0.0841997 0.015512 -0.996328
0.594165 -0.213727 0.775428
0.807205 -0.379321 -0.452255
0.28387 -0.23538 -0.929524
-0.590807 -0.759613 -0.27191
-0.1432 -0.956999 -0.252284
-0.449019 0.796524 -0.404885
0.374899 0.276769 0.884788
-0.176177 -0.95682 0.231209
-0.247367 -0.0100789 0.968869
-0.707078 -0.440219 -0.553398
0.935006 0.354083 0.0196982
ITEM: TIMESTEP
8070
ITEM: NUMBER OF ATOMS
54
ITEM: BOX BOUNDS pp pp pp
0.0000000000000000e+00 8.6303750400000006e+00
0.0000000000000000e+00 8.6303750400000006e+00
0.0000000000000000e+00 8.6303750400000006e+00
ITEM: ATOMS c_outsp[1] c_outsp[2] c_outsp[3]
0.996583 -0.0572344 -0.05955
-0.653666 -0.602257 -0.458265
-0.788622 -0.491266 -0.369774
-0.326089 0.609317 -0.722772
0.978349 0.204969 0.0286625
0.369601 -0.431479 -0.822934
0.979508 0.177979 0.0942699
-0.508701 -0.497473 -0.702669
0.899853 -0.435996 -0.0131103
-0.886321 -0.399844 -0.233579
-0.700893 -0.194657 -0.68619
-0.143219 0.74839 -0.647612
0.110098 0.988149 -0.106961
-0.95284 0.265791 -0.146462
-0.103005 0.835764 -0.539341
-0.295003 0.445789 -0.845131
-0.725833 0.426261 -0.539877
0.69833 0.715723 0.00869251
-0.869081 -0.136653 0.475421
0.218007 0.85377 0.47281
0.432279 -0.708149 0.558265
0.440445 0.587875 -0.678536
0.246637 0.807812 -0.535359
-0.554638 -0.764282 -0.329015
-0.4258 0.900556 0.0877088
-0.405367 -0.0462249 -0.912985
-0.589171 -0.00834619 -0.807965
-0.156868 -0.987619 0.00122657
0.301573 -0.422885 0.85453
0.608944 0.66413 -0.433725
-0.162428 -0.784333 -0.598697
-0.958327 -0.00776029 0.285567
-0.14421 0.975243 -0.167642
0.939051 -0.335733 0.0739439
-0.850012 0.484019 -0.207861
-0.314485 -0.108532 -0.943038
0.938841 -0.0129984 0.344106
0.368897 -0.924899 -0.0920753
0.856353 -0.412548 0.310587
0.0791133 -0.393704 0.915827
-0.153471 -0.974803 0.16188
0.962481 -0.0282618 -0.269873
-0.0681314 0.0164558 -0.997541
0.591266 -0.197313 0.781967
0.836677 -0.36288 -0.410231
0.27354 -0.302751 -0.912972
-0.607497 -0.747185 -0.269559
-0.122614 -0.958306 -0.2581
-0.429763 0.792324 -0.433043
0.393288 0.24382 0.886496
-0.182999 -0.952906 0.241829
-0.27615 0.0404035 0.960265
-0.702878 -0.416629 -0.576526
0.938426 0.341279 0.0537248
ITEM: TIMESTEP
8075
ITEM: NUMBER OF ATOMS
54
ITEM: BOX BOUNDS pp pp pp
0.0000000000000000e+00 8.6303750400000006e+00
0.0000000000000000e+00 8.6303750400000006e+00
0.0000000000000000e+00 8.6303750400000006e+00
ITEM: ATOMS c_outsp[1] c_outsp[2] c_outsp[3]
0.99206 -0.117751 -0.0441779
-0.663093 -0.575161 -0.479058
-0.825614 -0.443884 -0.348323
-0.321083 0.635294 -0.702359
0.980331 0.194445 0.033789
0.313934 -0.465066 -0.827743
0.983558 0.121071 0.134
-0.505619 -0.464581 -0.726989
0.876903 -0.4804 0.0160527
-0.913621 -0.353182 -0.201391
-0.683201 -0.153471 -0.713921
-0.0817469 0.755983 -0.649467
0.132285 0.987289 -0.0880923
-0.947231 0.283506 -0.149589
-0.0738871 0.826235 -0.558459
-0.293 0.466015 -0.834854
-0.739807 0.442048 -0.507227
0.708613 0.704323 -0.0423815
-0.865762 -0.133314 0.482372
0.267767 0.855249 0.443677
0.400432 -0.745326 0.533051
0.432371 0.621539 -0.653256
0.292478 0.782846 -0.549189
-0.589337 -0.735706 -0.333795
-0.417543 0.905005 0.0813873
-0.412105 -0.0303615 -0.91063
-0.572418 0.0452805 -0.81871
-0.184047 -0.982908 0.00439615
0.290758 -0.454364 0.842029
0.631036 0.62551 -0.458836
-0.219108 -0.770321 -0.59883
-0.974635 -0.0241319 0.222496
-0.119222 0.98024 -0.15785
0.939437 -0.333038 0.0808956
-0.835889 0.507129 -0.210023
-0.293101 -0.107977 -0.949965
0.932995 -0.0179835 0.359439
0.354508 -0.925408 -0.133957
0.82701 -0.443182 0.345896
0.0829668 -0.456201 0.886001
-0.169132 -0.97444 0.147858
0.977359 -0.0321063 -0.209136
-0.0511663 0.0163111 -0.998557
0.588794 -0.181073 0.78774
0.863828 -0.345786 -0.366379
0.256649 -0.367954 -0.893723
-0.624051 -0.733901 -0.268233
-0.101603 -0.958921 -0.264854
-0.411761 0.786099 -0.460979
0.410884 0.209788 0.887222
-0.190194 -0.948736 0.252441
-0.301578 0.0920475 0.948988
-0.697082 -0.393927 -0.599081
0.940738 0.327223 0.0890936
ITEM: TIMESTEP
8080
ITEM: NUMBER OF ATOMS
54
ITEM: BOX BOUNDS pp pp pp
0.0000000000000000e+00 8.6303750400000006e+00
0.0000000000000000e+00 8.6303750400000006e+00
0.0000000000000000e+00 8.6303750400000006e+00
ITEM: ATOMS c_outsp[1] c_outsp[2] c_outsp[3]
0.983681 -0.177545 -0.0291369
-0.670485 -0.549398 -0.49861
-0.858669 -0.394642 -0.327025
-0.315405 0.660345 -0.681516
0.982082 0.184618 0.0378177
0.256247 -0.496191 -0.829537
0.983125 0.0630545 0.171723
-0.499428 -0.432315 -0.750783
0.851493 -0.522389 0.0454832
-0.937653 -0.303129 -0.17006
-0.663018 -0.113032 -0.740021
-0.0193097 0.760093 -0.649528
0.156275 0.985215 -0.0702148
-0.941859 0.299604 -0.152117
-0.0449575 0.814846 -0.577932
-0.290457 0.485986 -0.824289
-0.750515 0.461097 -0.47341
0.71644 0.691378 -0.0933353
-0.862694 -0.129378 0.488897
0.31624 0.853834 0.413473
0.364694 -0.780669 0.507498
0.424731 0.653887 -0.626128
0.336325 0.755049 -0.562838
-0.623615 -0.70527 -0.337193
-0.409699 0.909155 0.0747298
-0.41679 -0.0126988 -0.908914
-0.550121 0.0975496 -0.829368