ITEM: TIMESTEP
3500
ITEM: NUMBER OF ATOMS
54
ITEM: BOX BOUNDS pp pp pp
0.0000000000000000e+00 8.6303750400000006e+00
0.0000000000000000e+00 8.6303750400000006e+00
0.0000000000000000e+00 8.6303750400000006e+00
ITEM: ATOMS c_outsp[1] c_outsp[2] c_outsp[3]
0.742286 -0.642777 -0.189339
-0.708005 0.552081 -0.440382
0.125155 -0.144469 0.981562
-0.231975 0.877828 -0.419054
-0.370911 0.927301 0.0503815
0.527139 -0.405323 -0.746885
-0.257684 -0.747369 -0.612404
0.449919 0.25437 -0.856077
0.527436 -0.128671 -0.839794
0.543456 0.52716 -0.653267
-0.835077 -0.520025 0.179498
-0.842684 -0.468745 -0.264882
-0.937172 -0.168969 0.305218
-0.739003 -0.672167 -0.0454555
-0.842601 -0.462344 -0.276156
-0.831277 0.361506 0.422246
-0.300637 -0.357898 0.88404
0.539068 -0.835417 -0.107163
-0.712243 -0.422493 -0.560545
-0.599386 -0.738932 -0.307761
-0.892371 -0.337338 -0.299794
0.392379 0.899044 -0.194315
-0.358622 0.219298 -0.907358
0.408259 0.120536 -0.904873
0.759181 -0.513171 0.400376
0.926069 -0.352085 -0.135764
0.407077 -0.912402 -0.0425604
0.595334 0.670316 -0.443006
-0.75985 0.647657 0.056281
-0.0109028 -0.497271 -0.867527
0.00874475 -0.997062 0.0761011
0.494531 0.529623 0.689158
0.386756 -0.906765 -0.167919
0.651807 -0.0955537 -0.752341
-0.939599 -0.322555 0.114504
0.593974 -0.740618 -0.314135
0.0212727 0.850214 0.526007
-0.845544 0.388083 -0.366671
0.811264 0.319889 -0.48941
-0.424988 -0.419068 -0.802351
0.612975 0.313911 0.725067
0.225579 -0.296999 0.92785
-0.377261 0.923091 -0.0746726
0.414033 -0.0073061 -0.910233
-0.460334 0.872269 0.165045
0.767581 -0.416492 -0.487189
0.808637 -0.372752 -0.45515
0.895283 -0.29169 0.336728
0.564609 0.822763 -0.0654074
-0.505217 0.814879 0.284125
-0.89832 0.178025 0.401658
-0.0726657 -0.468111 -0.880677
0.945564 -0.226726 -0.233461
0.0089878 0.839667 -0.543027
ITEM: TIMESTEP
3505
ITEM: NUMBER OF ATOMS
54
ITEM: BOX BOUNDS pp pp pp
0.0000000000000000e+00 8.6303750400000006e+00
0.0000000000000000e+00 8.6303750400000006e+00
0.0000000000000000e+00 8.6303750400000006e+00
ITEM: ATOMS c_outsp[1] c_outsp[2] c_outsp[3]
0.741398 -0.651909 -0.159198
-0.670347 0.585359 -0.456059
0.0698507 -0.119618 0.99036
-0.16965 0.87756 -0.44845
-0.31699 0.945985 0.0680365
0.521287 -0.400474 -0.753579
-0.250875 -0.764336 -0.594014
0.449046 0.24188 -0.860146
0.52845 -0.180995 -0.829446
0.57394 0.512778 -0.638476
-0.858252 -0.486174 0.164435
-0.867403 -0.421379 -0.264672
-0.930921 -0.150582 0.332733
-0.732261 -0.677312 -0.0710066
-0.8638 -0.423224 -0.27337
-0.80956 0.418114 0.412059
-0.273237 -0.339276 0.90013
0.555188 -0.827158 -0.0870409
-0.723886 -0.406269 -0.557615
-0.626385 -0.705996 -0.330473
-0.886315 -0.339244 -0.315215
0.414853 0.885549 -0.209044
-0.380646 0.228782 -0.895973
0.397136 0.104084 -0.911839
0.747623 -0.519531 0.413701
0.906003 -0.404839 -0.12355
0.387836 -0.917023 -0.0930158
0.628248 0.656827 -0.416994
-0.741031 0.671225 0.0181849
-0.0502984 -0.481285 -0.87512
-0.00177957 -0.998081 0.0618959
0.480875 0.499403 0.720664
0.373612 -0.908719 -0.186129
0.64523 -0.100718 -0.75732
-0.938244 -0.312251 0.14899
0.561377 -0.767418 -0.309718
-0.0127456 0.846137 0.532812
-0.845115 0.385543 -0.37032
0.808507 0.289459 -0.512377
-0.434525 -0.399338 -0.80729
0.607918 0.265935 0.748141
0.246843 -0.280062 0.927703
-0.356501 0.930878 -0.0798266
0.414842 -0.0356118 -0.909196
-0.444764 0.884254 0.142409
0.746708 -0.421772 -0.51433
0.806369 -0.402501 -0.433315
0.87966 -0.327857 0.34454
0.585957 0.806842 -0.0752341
-0.473 0.839771 0.266565
-0.892632 0.16923 0.417816
-0.12301 -0.458814 -0.879976
0.936988 -0.256524 -0.23717
0.0584575 0.860644 -0.50584
ITEM: TIMESTEP
3510
ITEM: NUMBER OF ATOMS
54
ITEM: BOX BOUNDS pp pp pp
0.0000000000000000e+00 8.6303750400000006e+00
0.0000000000000000e+00 8.6303750400000006e+00
0.0000000000000000e+00 8.6303750400000006e+00
ITEM: ATOMS c_outsp[1] c_outsp[2] c_outsp[3]
0.739523 -0.660374 -0.130431
-0.631354 0.616086 -0.470988
0.0147377 -0.0931822 0.99554
-0.107147 0.87263 -0.476483
-0.262544 0.961051 0.0863232
0.515888 -0.394662 -0.76033
-0.245717 -0.781607 -0.573335
0.447944 0.230079 -0.86395
0.526571 -0.233027 -0.81757
0.603944 0.496826 -0.62323
-0.879158 -0.452855 0.148335
-0.889547 -0.373006 -0.263767
-0.92348 -0.130779 0.360669
-0.724106 -0.683103 -0.0950783
-0.88287 -0.382238 -0.272828
-0.78408 0.473828 0.40088
-0.244862 -0.320625 0.915009
0.569479 -0.819377 -0.0656875
-0.734951 -0.390084 -0.55469
-0.652148 -0.670448 -0.353838
-0.879987 -0.341041 -0.330626
0.436088 0.871746 -0.223351
-0.40191 0.23969 -0.883752
0.384457 0.0870937 -0.919026
0.736247 -0.525109 0.42685
0.882439 -0.456998 -0.111597
0.369229 -0.918098 -0.144102
0.659276 0.642716 -0.390219
-0.720465 0.693229 -0.0190527
-0.0885948 -0.463548 -0.881632
-0.0124422 -0.998796 0.0474513
0.464254 0.470794 0.750214
0.36125 -0.909901 -0.20391
0.638527 -0.105704 -0.762306
-0.93563 -0.302379 0.182109
0.527248 -0.793504 -0.303908
-0.0480427 0.841321 0.538396
-0.844851 0.382942 -0.373607
0.80443 0.257797 -0.535194
-0.442624 -0.37947 -0.812457
0.6008 0.2177 0.769185
0.267839 -0.262611 0.926983
-0.335151 0.938332 -0.0848963
0.413835 -0.0634404 -0.908139
-0.427283 0.896226 0.119202
0.726461 -0.424673 -0.540284
0.802432 -0.432565 -0.411084
0.862589 -0.363981 0.351365
0.606601 0.790374 -0.0856982
-0.439626 0.863336 0.24775
-0.886468 0.159151 0.434564
-0.173384 -0.447837 -0.877143
0.927605 -0.28555 -0.240853
0.108755 0.877572 -0.466947
ITEM: TIMESTEP
3515
ITEM: NUMBER OF ATOMS
54
ITEM: BOX BOUNDS pp pp pp
0.0000000000000000e+00 8.6303750400000006e+00
0.0000000000000000e+00 8.6303750400000006e+00
0.0000000000000000e+00 8.6303750400000006e+00
ITEM: ATOMS c_outsp[1] c_outsp[2] c_outsp[3]
0.736795 -0.66822 -0.103034
-0.591219 0.644262 -0.485167
-0.0399808 -0.0653038 0.997064
-0.0449186 0.863021 -0.503167
-0.20782 0.972497 0.105167
0.511035 -0.387889 -0.767062
-0.242295 -0.798969 -0.550402
0.446676 0.218976 -0.867485
0.521881 -0.284534 -0.804165
0.633363 0.479277 -0.607573
-0.897859 -0.420252 0.13129
-0.90905 -0.323799 -0.262265
-0.914728 -0.109701 0.388894
-0.714688 -0.689489 -0.117583
-0.899602 -0.339624 -0.274539
-0.754867 0.528317 0.388661
-0.215599 -0.3019 0.92864
0.581848 -0.812147 -0.0432451
-0.745484 -0.373949 -0.551739
-0.676413 -0.632264 -0.377767
-0.873431 -0.342672 -0.34597
0.456122 0.85772 -0.23721
-0.422338 0.251977 -0.870711
0.370154 0.069676 -0.926354
0.725093 -0.529951 0.439764
0.855345 -0.508319 -0.0999825
0.351466 -0.915541 -0.195594
0.688412 0.628089 -0.362758
-0.698295 0.71367 -0.055319
-0.125675 -0.44421 -0.887064
-0.0232393 -0.999192 0.0327975
0.444867 0.444073 0.777748
0.349647 -0.910394 -0.221202
0.631688 -0.110479 -0.76731
-0.931888 -0.293012 0.213844
0.491625 -0.818734 -0.296613
-0.0845061 0.835709 0.542632
-0.844716 0.380345 -0.376553
0.798963 0.224956 -0.557721
-0.449278 -0.359596 -0.817826
0.591618 0.169424 0.788215
0.288482 -0.244642 0.925704
-0.31325 0.945413 -0.0898276
0.411081 -0.0906629 -0.907079
-0.407819 0.908054 0.0955096
0.707034 -0.425334 -0.564972
0.796768 -0.462849 -0.388498
0.844094 -0.399939 0.357149
0.626483 0.773397 -0.0968341
-0.405182 0.885428 0.227695
-0.879802 0.147756 0.451792
-0.223566 -0.435092 -0.872189
0.917477 -0.313768 -0.244513
0.159518 0.89034 -0.426437
ITEM: TIMESTEP
3520
ITEM: NUMBER OF ATOMS
54
ITEM: BOX BOUNDS pp pp pp
0.0000000000000000e+00 8.6303750400000006e+00
0.0000000000000000e+00 8.6303750400000006e+00
0.0000000000000000e+00 8.6303750400000006e+00
ITEM: ATOMS c_outsp[1] c_outsp[2] c_outsp[3]
0.733335 -0.675495 -0.0769867
-0.550123 0.669901 -0.498595
-0.094104 -0.0361341 0.994906
0.0165753 0.84875 -0.528534
-0.153058 0.980344 0.124492
0.506824 -0.38017 -0.773693
-0.240678 -0.816199 -0.525256
0.445307 0.208573 -0.870746
0.514477 -0.33529 -0.789236
0.662083 0.460115 -0.591557
-0.914429 -0.388538 0.113391
-0.92586 -0.273935 -0.260275
-0.904553 -0.0875096 0.417284
-0.704158 -0.696415 -0.13845
-0.913808 -0.29563 -0.278493
-0.721984 0.581244 0.375359
-0.185538 -0.283057 0.940986
0.592214 -0.805536 -0.0198617
-0.755531 -0.357869 -0.548728
-0.698906 -0.591442 -0.402153
-0.86669 -0.344077 -0.361192
0.474994 0.843551 -0.250603
-0.441857 0.265594 -0.856868
0.35417 0.0519472 -0.933737
0.714194 -0.53411 0.452386
0.824705 -0.558552 -0.0887836
0.334754 -0.90929 -0.247248
0.715654 0.613046 -0.334685
-0.674663 0.732555 -0.090511
-0.161438 -0.42343 -0.891429
-0.0341665 -0.999255 0.0179625
0.422936 0.419495 0.803212
0.338773 -0.910281 -0.237953
0.624708 -0.11501 -0.772343
-0.927143 -0.284212 0.244191
0.454552 -0.842961 -0.28775
-0.122011 0.829249 0.545398
-0.844672 0.377817 -0.379189
0.792047 0.191001 -0.579811
-0.454494 -0.33985 -0.823369
0.580384 0.121316 0.805256
0.308686 -0.22616 0.923886
-0.290839 0.952087 -0.0945667
0.406662 -0.117158 -0.906035
-0.386316 0.919597 0.0714272
0.688609 -0.423906 -0.588321
0.789325 -0.493257 -0.365601
0.82421 -0.435604 0.361839
0.645544 0.755951 -0.108675
-0.369766 0.905905 0.206422
-0.872611 0.135021 0.469382
-0.27333 -0.420506 -0.865139
0.906662 -0.341149 -0.248155
0.210371 0.898871 -0.384414
ITEM: TIMESTEP
3525
ITEM: NUMBER OF ATOMS
54
ITEM: BOX BOUNDS pp pp pp
0.0000000000000000e+00 8.6303750400000006e+00
0.0000000000000000e+00 8.6303750400000006e+00
0.0000000000000000e+00 8.6303750400000006e+00
ITEM: ATOMS c_outsp[1] c_outsp[2] c_outsp[3]
0.72925 -0.682249 -0.0522597
-0.508239 0.693026 -0.511281
-0.147434 -0.00583165 0.989055
0.0768672 0.829877 -0.552626
-0.0984897 0.984632 0.144224
0.503349 -0.371529 -0.780132
-0.240914 -0.833068 -0.497954
0.443896 0.198864 -0.873733
0.504471 -0.385081 -0.772802
0.689986 0.439332 -0.575245
-0.928952 -0.357875 0.0947259
-0.939941 -0.223592 -0.25791
-0.892856 -0.064384 0.445716
-0.692672 -0.703819 -0.157623
-0.925317 -0.250514 -0.28466
-0.685528 0.632275 0.360943
-0.154772 -0.264053 0.952009
0.600511 -0.799605 0.00430977
-0.765138 -0.341844 -0.545625
-0.719351 -0.54801 -0.426872
-0.859812 -0.345198 -0.376247
0.49275 0.829311 -0.263517
-0.460392 0.280491 -0.842237
0.336458 0.0340301 -0.941083
0.703585 -0.53764 0.464663
0.790524 -0.607433 -0.0780755
0.3193 -0.899315 -0.298798
0.741014 0.597677 -0.306073
-0.649716 0.749907 -0.124536
-0.195802 -0.40137 -0.894742
-0.0452185 -0.998973 0.00297137
0.398699 0.397298 0.826555
0.328591 -0.909644 -0.254119
0.61758 -0.119262 -0.777414
-0.92152 -0.276025 0.27315
0.416087 -0.866031 -0.277241
-0.160421 0.821895 0.546583
-0.844678 0.375418 -0.38155
0.783631 0.156011 -0.601317
-0.458293 -0.320363 -0.829057
0.567118 0.0735813 0.820343
0.328368 -0.207173 0.92155
-0.267963 0.958323 -0.0990611
0.400671 -0.142814 -0.905023
-0.362727 0.930706 0.0470625
0.671348 -0.420552 -0.610269
0.780055 -0.523686 -0.342443
0.802985 -0.470853 0.365393
0.663727 0.738081 -0.121253
-0.333483 0.924633 0.183964
-0.864872 0.120925 0.48721
-0.322444 -0.40402 -0.856036
0.895222 -0.36767 -0.251786
0.26093 0.903128 -0.340993
ITEM: TIMESTEP
3530
ITEM: NUMBER OF ATOMS
54
ITEM: BOX BOUNDS pp pp pp
0.0000000000000000e+00 8.6303750400000006e+00
0.0000000000000000e+00 8.6303750400000006e+00
0.0000000000000000e+00 8.6303750400000006e+00
ITEM: ATOMS c_outsp[1] c_outsp[2] c_outsp[3]
0.724633 -0.688532 -0.0288116
-0.465725 0.71367 -0.523235
-0.199777 0.0254381 0.979511
0.135487 0.806501 -0.575499
-0.0443379 0.985416 0.164287
0.500708 -0.362002 -0.786286
-0.243036 -0.849343 -0.468562
0.442501 0.189839 -0.876444
0.491983 -0.433701 -0.754888
0.716946 0.416931 -0.55871
-0.941521 -0.328414 0.0753793
-0.95127 -0.172948 -0.255291
-0.879549 -0.040518 0.47408
-0.680385 -0.711639 -0.17506
-0.93398 -0.204538 -0.292993
-0.645627 0.681081 0.34539
-0.123395 -0.24485 0.961677
0.606681 -0.794412 0.0291134
-0.774349 -0.325866 -0.542397
-0.737468 -0.502026 -0.451785
-0.852845 -0.345976 -0.391095
0.509436 0.815063 -0.275946
-0.477873 0.296616 -0.826835
0.316979 0.0160532 -0.948297
0.693294 -0.540598 0.476547
0.752835 -0.654694 -0.0679306
0.305304 -0.885614 -0.349967
0.76451 0.582065 -0.276991
-0.623595 0.765756 -0.157313
-0.228705 -0.378194 -0.89703
-0.0563896 -0.998335 -0.0121534
0.372417 0.377689 0.847736
0.319059 -0.908561 -0.269664
0.610301 -0.1232 -0.782531
-0.915136 -0.268486 0.300734
0.376296 -0.887787 -0.26502
-0.199588 0.813605 0.546087
-0.844694 0.373204 -0.383681
0.773683 0.120074 -0.622091
-0.460707 -0.301264 -0.834859
0.551856 0.0264119 0.833521
0.347444 -0.1877 0.918723
-0.244668 0.964093 -0.103259
0.393211 -0.16753 -0.904057
-0.337024 0.941226 0.0225324
0.655399 -0.415448 -0.630757
0.768921 -0.554033 -0.319074
0.780477 -0.505568 0.367772
0.680974 0.719832 -0.134598
-0.296447 0.941489 0.160367
-0.856566 0.105458 0.505146
-0.370676 -0.385589 -0.844938
0.883216 -0.393311 -0.255414
0.310807 0.903109 -0.296301
ITEM: TIMESTEP
3535
ITEM: NUMBER OF ATOMS
54
ITEM: BOX BOUNDS pp pp pp
0.0000000000000000e+00 8.6303750400000006e+00
0.0000000000000000e+00 8.6303750400000006e+00
0.0000000000000000e+00 8.6303750400000006e+00
ITEM: ATOMS c_outsp[1] c_outsp[2] c_outsp[3]
0.719566 -0.694393 -0.00659291
-0.42273 0.731872 -0.534475
-0.250943 0.0575033 0.966292
0.191968 0.778768 -0.597218
0.00918617 0.982769 0.18461
0.498994 -0.351642 -0.792056
-0.247054 -0.864786 -0.437161
0.441174 0.181477 -0.878881
0.477148 -0.480961 -0.735531
0.742838 0.392932 -0.54203
-0.952235 -0.300293 0.0554315
-0.959841 -0.12218 -0.25254
-0.864562 -0.0161185 0.502267
-0.667454 -0.719809 -0.190737
-0.939668 -0.157974 -0.303428
-0.602444 0.727343 0.328686
-0.091505 -0.225414 0.969956
0.610683 -0.790005 0.0543915
-0.783208 -0.309922 -0.539011
-0.752983 -0.453584 -0.476736
-0.845838 -0.346352 -0.405706
0.525104 0.800865 -0.28789
-0.494225 0.313915 -0.810678
0.295708 -0.00184906 -0.955276
0.683348 -0.543043 0.487996
0.711694 -0.700057 -0.0584163
0.292958 -0.868221 -0.40046
0.78617 0.566283 -0.247508
-0.596442 0.780143 -0.18877
-0.260101 -0.354065 -0.898324
-0.0676734 -0.997331 -0.0273921
0.344364 0.360855 0.866716
0.310128 -0.907108 -0.284563
0.602868 -0.126791 -0.787702
-0.908105 -0.261619 0.326958
0.335258 -0.908066 -0.251036
-0.239354 0.804341 0.543824
-0.844677 0.371227 -0.385632
0.76218 0.0832898 -0.641984
-0.46178 -0.282676 -0.840746
0.534645 -0.0200093 0.84484
0.365837 -0.167764 0.915434
-0.221 0.969374 -0.107112
0.384395 -0.191213 -0.903149
-0.309195 0.950996 -0.00203641
0.640892 -0.408776 -0.649738
0.75589 -0.584193 -0.295548
0.756755 -0.539632 0.368942
0.697225 0.701251 -0.14874
-0.258777 0.95636 0.135685
-0.847678 0.0886195 0.523057
-0.417791 -0.365183 -0.831921
0.8707 -0.418061 -0.259048
0.359617 0.898854 -0.250475
ITEM: TIMESTEP
3540
ITEM: NUMBER OF ATOMS
54
ITEM: BOX BOUNDS pp pp pp
0.0000000000000000e+00 8.6303750400000006e+00
0.0000000000000000e+00 8.6303750400000006e+00
0.0000000000000000e+00 8.6303750400000006e+00
ITEM: ATOMS c_outsp[1] c_outsp[2] c_outsp[3]
0.714114 -0.69988 0.0144533
-0.379389 0.747676 -0.545018
-0.300748 0.0901867 0.94943
0.245845 0.746866 -0.61786
0.0618826 0.976779 0.20512
0.498298 -0.340513 -0.797339
-0.25296 -0.87916 -0.403842
0.439962 0.173754 -0.881047
0.460106 -0.526684 -0.714777
0.767532 0.367365 -0.525298
-0.961197 -0.27364 0.034959
-0.965661 -0.0714649 -0.249781
-0.847841 0.00859701 0.530181
-0.654031 -0.728262 -0.204642
-0.942271 -0.111092 -0.315885
-0.55617 0.770754 0.310827
-0.0592016 -0.205718 0.976819
0.612482 -0.786427 0.0799855
-0.791756 -0.293994 -0.535434
-0.765626 -0.402811 -0.501557
-0.83884 -0.346268 -0.420055
0.539803 0.786766 -0.299353
-0.509379 0.332331 -0.793781
0.272632 -0.0195374 -0.96192
0.673769 -0.545036 0.49897
0.667185 -0.74324 -0.0495929
0.282442 -0.847202 -0.449973
0.806025 0.550397 -0.217687
-0.568395 0.793116 -0.218846
-0.289963 -0.329143 -0.898658
-0.0790626 -0.995954 -0.042728
0.31483 0.346951 0.883463
0.301743 -0.905357 -0.298797
0.595282 -0.13 -0.79293
-0.900532 -0.255436 0.351844
0.293056 -0.926702 -0.235248
-0.279551 0.794071 0.539725
-0.844583 0.369533 -0.38746
0.749117 0.0457668 -0.660855
-0.461569 -0.264718 -0.846687
0.515539 -0.0655109 0.854358
0.383471 -0.147399 0.911714
-0.19701 0.974146 -0.110572
0.374339 -0.213784 -0.902312
-0.279249 0.959853 -0.0265089
0.627936 -0.400725 -0.66717
0.740939 -0.614057 -0.271926
0.731898 -0.572935 0.368878
0.712423 0.682389 -0.163704
-0.220599 0.969144 0.109985
-0.838195 0.0704177 0.540806
-0.46356 -0.342791 -0.817072
0.857731 -0.441911 -0.2627
0.406983 0.890441 -0.203666
ITEM: TIMESTEP
3545
ITEM: NUMBER OF ATOMS
54
ITEM: BOX BOUNDS pp pp pp
0.0000000000000000e+00 8.6303750400000006e+00
0.0000000000000000e+00 8.6303750400000006e+00
0.0000000000000000e+00 8.6303750400000006e+00
ITEM: ATOMS c_outsp[1] c_outsp[2] c_outsp[3]
0.708333 -0.70504 0.0343897
-0.335827 0.76113 -0.554889
-0.349011 0.123306 0.928971
0.296667 0.711035 -0.637509
0.113563 0.967544 0.225749
0.498706 -0.328698 -0.802028
-0.260726 -0.89223 -0.368711
0.438906 0.166638 -0.882946
0.441004 -0.57071 -0.69268
0.790902 0.34028 -0.508609
-0.968513 -0.248568 0.0140346
-0.968753 -0.0209757 -0.24714
-0.82935 0.0334041 0.55773
-0.640267 -0.73693 -0.216779
-0.941703 -0.0641704 -0.330268
-0.50703 0.811025 0.291821
-0.0265848 -0.185744 0.982239
0.612058 -0.783712 0.105738
-0.800032 -0.278056 -0.531634
-0.775141 -0.349872 -0.526067
-0.831895 -0.345664 -0.434127
0.553586 0.772807 -0.310343
-0.523262 0.351809 -0.776162
0.24775 -0.0368678 -0.968122
0.664575 -0.546641 0.509435
0.619423 -0.783959 -0.0415117
0.27392 -0.82266 -0.498196
0.824113 0.534461 -0.187587
-0.539586 0.804733 -0.247491
-0.318278 -0.303584 -0.898073
-0.0905497 -0.994193 -0.0581474
0.284114 0.336104 0.89795
0.293849 -0.903374 -0.312358
0.587545 -0.132795 -0.79822
-0.892519 -0.249938 0.375421
0.249789 -0.943526 -0.217634
-0.320002 0.782766 0.533738
-0.844369 0.368162 -0.389226
0.7345 0.00762303 -0.678566
-0.460142 -0.247501 -0.85265
0.494607 -0.109934 0.862136
0.40028 -0.126646 0.9076
-0.172747 0.978394 -0.113594
0.363168 -0.235174 -0.901555
-0.247212 0.967632 -0.0507425
0.616622 -0.391489 -0.683019
0.72405 -0.643517 -0.248268
0.705992 -0.605371 0.367561
0.726508 0.663295 -0.179514
-0.182041 0.979752 0.0833472
-0.828109 0.050873 0.558254
-0.507757 -0.318419 -0.800495
0.844362 -0.464858 -0.266381
0.45254 0.877987 -0.156032
ITEM: TIMESTEP
3550
ITEM: NUMBER OF ATOMS
54
ITEM: BOX BOUNDS pp pp pp
0.0000000000000000e+00 8.6303750400000006e+00
0.0000000000000000e+00 8.6303750400000006e+00
0.0000000000000000e+00 8.6303750400000006e+00
ITEM: ATOMS c_outsp[1] c_outsp[2] c_outsp[3]
0.702265 -0.709919 0.0532837
-0.292156 0.772283 -0.564113
-0.395561 0.156675 0.904978
0.343997 0.671561 -0.656256
0.164053 0.955174 0.246434
0.500296 -0.316294 -0.806016
-0.270304 -0.903763 -0.331887
0.438041 0.160093 -0.884585
0.41999 -0.612895 -0.669304
0.812824 0.311744 -0.492069
-0.97429 -0.225179 -0.00727323
-0.969152 0.0291174 -0.244739
-0.809073 0.0580733 0.584833
-0.626307 -0.745745 -0.227166
-0.937898 -0.0174838 -0.346471
-0.455272 0.847888 0.271686
0.00624486 -0.165481 0.986193
0.6094 -0.781884 0.131492
-0.80807 -0.26208 -0.527576
-0.781286 -0.294968 -0.550079
-0.825048 -0.344482 -0.447915
0.566505 0.75902 -0.320875
-0.535805 0.372289 -0.757835
0.221074 -0.053692 -0.973778
0.655779 -0.547918 0.519365
0.568554 -0.821934 -0.034213
0.267538 -0.794731 -0.544817
0.840477 0.518524 -0.157263
-0.510139 0.815057 -0.274664
-0.345053 -0.277534 -0.896612
-0.102126 -0.992042 -0.0736392
0.252525 0.328412 0.910152
0.286386 -0.901221 -0.325244
0.579662 -0.135142 -0.803573
-0.884159 -0.24512 0.397717
0.205559 -0.958366 -0.19819
-0.360527 0.770403 0.525832
-0.843992 0.367149 -0.390998
0.718353 -0.0310166 -0.694987
-0.457576 -0.231129 -0.858606
0.471923 -0.153133 0.868239
0.4162 -0.105551 0.903126
-0.148261 0.982106 -0.116135
0.35101 -0.255325 -0.900889
-0.213132 0.974172 -0.0745881
0.607021 -0.381263 -0.697255
0.705214 -0.672465 -0.224641
0.679133 -0.636844 0.364976
0.739421 0.644023 -0.196191
-0.143233 0.988111 0.0558587
-0.817417 0.0300172 0.575264
-0.550167 -0.292088 -0.782305
0.830644 -0.486904 -0.270103
0.495942 0.861645 -0.107743
ITEM: TIMESTEP
3555
ITEM: NUMBER OF ATOMS
54
ITEM: BOX BOUNDS pp pp pp
0.0000000000000000e+00 8.6303750400000006e+00
0.0000000000000000e+00 8.6303750400000006e+00
0.0000000000000000e+00 8.6303750400000006e+00
ITEM: ATOMS c_outsp[1] c_outsp[2] c_outsp[3]
0.69594 -0.71456 0.0712064
-0.248482 0.781185 -0.572718
-0.440233 0.190103 0.877528
0.387421 0.62878 -0.674197
0.213189 0.939788 0.267113
0.503135 -0.303416 -0.809194
-0.281627 -0.913534 -0.293499
0.437395 0.154075 -0.885972
0.397217 -0.653111 -0.64472
0.833181 0.281841 -0.47579
-0.978636 -0.203559 -0.0289002
-0.966908 0.0786481 -0.242699
-0.787013 0.0823738 0.611412
-0.612292 -0.75464 -0.235833
-0.930811 0.0286909 -0.364372
-0.401172 0.881099 0.25045
0.0391868 -0.14493 0.988666
0.604505 -0.780958 0.157096
-0.815904 -0.246031 -0.52323
-0.783843 -0.238339 -0.573398
-0.818336 -0.342664 -0.461418
0.578613 0.745432 -0.330965
-0.546936 0.393709 -0.73882
0.192632 -0.0698583 -0.978781
0.647391 -0.54893 0.528735
0.514758 -0.856887 -0.0277243
0.26342 -0.76359 -0.589525
0.85516 0.502625 -0.126767
-0.480174 0.824155 -0.300334
-0.370307 -0.251132 -0.894318
-0.113783 -0.989494 -0.0891952
0.220381 0.323941 0.920051
0.279292 -0.898952 -0.337464
0.571637 -0.13701 -0.808986
-0.875541 -0.240964 0.418766
0.160479 -0.971052 -0.17693
-0.400939 0.756963 0.515999
-0.843407 0.366519 -0.392846
0.700714 -0.0700208 -0.709998
-0.453958 -0.215696 -0.864522
0.447571 -0.194975 0.872734
0.431179 -0.0841702 0.898332
-0.123603 0.985272 -0.118156
0.337993 -0.27419 -0.900322
-0.177079 0.979316 -0.0978919
0.599184 -0.370245 -0.709857
0.68443 -0.700792 -0.201112
0.651423 -0.667264 0.361119
0.751103 0.624624 -0.21375
-0.104307 0.994162 0.0276185
-0.80612 0.00789399 0.591699
-0.590582 -0.263838 -0.762628
0.816623 -0.508052 -0.273879
0.536868 0.841603 -0.0589765
ITEM: TIMESTEP
3560
ITEM: NUMBER OF ATOMS
54
ITEM: BOX BOUNDS pp pp pp
0.0000000000000000e+00 8.6303750400000006e+00
0.0000000000000000e+00 8.6303750400000006e+00
0.0000000000000000e+00 8.6303750400000006e+00
ITEM: ATOMS c_outsp[1] c_outsp[2] c_outsp[3]
0.68938 -0.719007 0.0882314
-0.204897 0.787886 -0.580735
-0.482871 0.223401 0.846716
0.426552 0.583076 -0.69143
0.26082 0.921513 0.287728
0.507278 -0.290193 -0.811453
-0.29461 -0.921328 -0.253692
0.436989 0.148538 -0.887117
0.372835 -0.69125 -0.619006
0.851862 0.250673 -0.459885
-0.981654 -0.183785 -0.050786
-0.962085 0.127455 -0.241137
-0.763196 0.106076 0.6374
-0.598356 -0.76355 -0.242821
-0.920423 0.0740778 -0.38384
-0.345026 0.910441 0.228152
0.0721417 -0.1241 0.989644
0.597381 -0.78094 0.182398
-0.823561 -0.22987 -0.518563
-0.782621 -0.18026 -0.595828
-0.811794 -0.340152 -0.474644
0.58996 0.732062 -0.340636
-0.556585 0.416007 -0.719133
0.162466 -0.0852123 -0.983028
0.639415 -0.549738 0.537529
0.458246 -0.888552 -0.0220581
0.261664 -0.729441 -0.632018
0.868209 0.486796 -0.0961445
-0.449802 0.832101 -0.324479
-0.39407 -0.224507 -0.891238
-0.12551 -0.98654 -0.10481
0.187999 0.322724 0.927634
0.272507 -0.896614 -0.349032
0.563481 -0.138372 -0.814458
-0.866744 -0.237449 0.438603
0.114671 -0.981412 -0.153889
-0.44105 0.74243 0.504255
-0.842572 0.366294 -0.394844
0.681631 -0.109254 -0.723493
-0.449383 -0.201286 -0.870367
0.42164 -0.235341 0.87569
0.44517 -0.0625653 0.893257
-0.0988238 0.987889 -0.119621
0.32425 -0.291732 -0.899863
-0.139142 0.982914 -0.120497
0.593144 -0.35863 -0.720809
0.661704 -0.72839 -0.177752
0.622972 -0.696547 0.355989
0.761493 0.605153 -0.232204
-0.065392 0.997859 -0.00126557
-0.794227 -0.0154411 0.607426
-0.62881 -0.233726 -0.7416
0.802345 -0.528311 -0.277723
0.575023 0.818077 -0.00991542
ITEM: TIMESTEP
3565
ITEM: NUMBER OF ATOMS
54
ITEM: BOX BOUNDS pp pp pp
0.0000000000000000e+00 8.6303750400000006e+00
0.0000000000000000e+00 8.6303750400000006e+00
0.0000000000000000e+00 8.6303750400000006e+00
ITEM: ATOMS c_outsp[1] c_outsp[2] c_outsp[3]
0.682591 -0.7233 0.104434
-0.161489 0.792431 -0.588196
-0.523327 0.256373 0.812651
0.461039 0.534882 -0.708057
0.306808 0.900481 0.308227
0.512768 -0.276774 -0.81269
-0.309149 -0.92694 -0.212623
0.436835 0.143432 -0.888033
0.346989 -0.727217 -0.592245
0.86877 0.218363 -0.444474
-0.983443 -0.16592 -0.0728747
-0.954759 0.175381 -0.240162
-0.737666 0.128953 0.662737
-0.584624 -0.772412 -0.248183
-0.906737 0.118403 -0.404734
-0.28715 0.935727 0.204839
0.105012 -0.103011 0.989121
0.588044 -0.781825 0.207254
-0.831064 -0.213554 -0.513544
-0.77746 -0.12104 -0.617175
-0.805447 -0.336889 -0.487607
0.600597 0.718919 -0.349913
-0.56468 0.439117 -0.698793
0.130633 -0.0995977 -0.986415
0.631851 -0.550401 0.545732
0.399263 -0.916675 -0.0172113
0.262342 -0.692521 -0.672005
0.87967 0.471061 -0.0654369
-0.419123 0.838968 -0.347085
-0.416386 -0.197773 -0.887417
-0.137297 -0.983176 -0.120479
0.155702 0.324764 0.932891
0.265967 -0.89425 -0.359971
0.555205 -0.139198 -0.819982
-0.857844 -0.234543 0.457266
0.0682629 -0.989276 -0.129123
-0.480673 0.726794 0.490637
-0.841442 0.366484 -0.39707
0.661169 -0.148578 -0.735378
-0.443955 -0.187976 -0.87611
0.394229 -0.274127 0.877176
0.45814 -0.0408039 0.887943
-0.0739719 0.989954 -0.120497
0.309911 -0.307927 -0.89952
-0.0994337 0.984825 -0.142244
0.588913 -0.346608 -0.730099
0.63705 -0.755152 -0.154637
0.593894 -0.724621 0.349592
0.77053 0.585662 -0.251561
-0.0266166 0.999175 -0.030678
-0.781748 -0.0399207 0.622315
-0.664672 -0.201821 -0.719361
0.787849 -0.547694 -0.281648
0.610148 0.791314 0.039252
ITEM: TIMESTEP
3570
ITEM: NUMBER OF ATOMS
54
ITEM: BOX BOUNDS pp pp pp
0.0000000000000000e+00 8.6303750400000006e+00
0.0000000000000000e+00 8.6303750400000006e+00
0.0000000000000000e+00 8.6303750400000006e+00
ITEM: ATOMS c_outsp[1] c_outsp[2] c_outsp[3]
0.675576 -0.727478 0.119891
-0.118338 0.794865 -0.595135
-0.561463 0.288828 0.77546
0.490571 0.484676 -0.724175
0.351024 0.87683 0.32856
0.519628 -0.263318 -0.812804
-0.325124 -0.930182 -0.170458
0.436938 0.138702 -0.888733
0.319822 -0.760937 -0.564525
0.88382 0.185049 -0.429673
-0.984098 -0.150012 -0.0951141
-0.945015 0.222276 -0.239877
-0.710486 0.150785 0.687367
-0.571215 -0.781164 -0.251984
-0.889778 0.161396 -0.426904
-0.227873 0.956802 0.180568
0.137702 -0.0816949 0.987099
0.576515 -0.783599 0.231523
-0.838431 -0.197037 -0.508143
-0.768238 -0.0610195 -0.63725
-0.799316 -0.332817 -0.500327
0.610572 0.706009 -0.358823
-0.571153 0.462972 -0.677821
0.0972063 -0.112857 -0.988845
0.624694 -0.550978 0.553336
0.338087 -0.941023 -0.0131629
0.265496 -0.653092 -0.709212
0.889591 0.455439 -0.0346812
-0.388232 0.844834 -0.368146
-0.437307 -0.171035 -0.882898
-0.149133 -0.979392 -0.136203
0.123806 0.330032 0.935816
0.259615 -0.891892 -0.370309
0.546823 -0.139465 -0.825551
-0.848911 -0.232211 0.474792
0.0213893 -0.994481 -0.102709
-0.519622 0.710049 0.475209
-0.839977 0.367096 -0.399599
0.6394 -0.187851 -0.745573
-0.43778 -0.175827 -0.881722
0.365439 -0.311242 0.877259
0.470061 -0.018958 0.88243
-0.0490961 0.991467 -0.120755
0.295106 -0.322756 -0.8993
-0.0580843 0.984919 -0.162975
0.586486 -0.334366 -0.737722
0.610488 -0.780975 -0.131844
0.564305 -0.751421 0.341943
0.778153 0.566208 -0.271822
0.0118945 0.998098 -0.0604966
-0.768703 -0.0654667 0.636247
-0.698005 -0.168209 -0.696057
0.773174 -0.566212 -0.285668
0.642019 0.761583 0.0883351
ITEM: TIMESTEP
3575
ITEM: NUMBER OF ATOMS
54
ITEM: BOX BOUNDS pp pp pp
0.0000000000000000e+00 8.6303750400000006e+00
0.0000000000000000e+00 8.6303750400000006e+00
0.0000000000000000e+00 8.6303750400000006e+00
ITEM: ATOMS c_outsp[1] c_outsp[2] c_outsp[3]
0.668323 -0.731578 0.134678
-0.0755183 0.795229 -0.601588
-0.597155 0.320573 0.735282
0.514888 0.43298 -0.739878
0.393353 0.850701 0.348684
0.527862 -0.250001 -0.811703
-0.342401 -0.93088 -0.127375
0.437296 0.134292 -0.889235
0.291468 -0.792348 -0.53594
0.896945 0.150888 -0.4156
-0.983708 -0.136099 -0.117456
-0.932951 0.267994 -0.240377
-0.681741 0.171361 0.711242
-0.558238 -0.789749 -0.254297
-0.869599 0.202789 -0.450194
-0.167536 0.973541 0.155401
0.170121 -0.060192 0.983583
0.562825 -0.786237 0.255068
-0.845674 -0.180269 -0.502332
-0.754872 -0.000564177 -0.655872
-0.79341 -0.327882 -0.512829
0.61993 0.693329 -0.367398
-0.575933 0.4875 -0.656236
0.0622742 -0.124833 -0.990221
0.617935 -0.551522 0.560339
0.275024 -0.961387 -0.00987415
0.271136 -0.611443 -0.743386
0.898017 0.439943 -0.00391006
-0.357212 0.849776 -0.387661
-0.456891 -0.144384 -0.877726
-0.161005 -0.975181 -0.151982
0.0926281 0.338468 0.936408
0.253393 -0.889568 -0.38008
0.538349 -0.139148 -0.831155
-0.840008 -0.230411 0.49122
-0.0258078 -0.996868 -0.0747483
-0.557716 0.692195 0.458059
-0.838134 0.368125 -0.40251
0.61641 -0.226936 -0.754015
-0.430974 -0.164893 -0.887171
0.335374 -0.346608 0.876006
0.480919 0.00289652 0.87676
-0.0242429 0.992433 -0.12037
0.279965 -0.336215 -0.89921
-0.0152447 0.983081 -0.182534
0.585837 -0.322083 -0.743678
0.582048 -0.805755 -0.109451
0.534329 -0.776893 0.333062
0.784298 0.546843 -0.292984
0.0500211 0.994631 -0.0905941
-0.755115 -0.0919904 0.649106
-0.728662 -0.132991 -0.671837
0.758352 -0.583883 -0.289798
0.670451 0.729169 0.137143
ITEM: TIMESTEP
3580
ITEM: NUMBER OF ATOMS
54
ITEM: BOX BOUNDS pp pp pp
0.0000000000000000e+00 8.6303750400000006e+00
0.0000000000000000e+00 8.6303750400000006e+00
0.0000000000000000e+00 8.6303750400000006e+00
ITEM: ATOMS c_outsp[1] c_outsp[2] c_outsp[3]
0.660815 -0.735636 0.148872
-0.0331027 0.79356 -0.60759
-0.630287 0.351417 0.692274
0.533783 0.380352 -0.755254
0.433687 0.82224 0.36856
0.537457 -0.237008 -0.809301
-0.36083 -0.92888 -0.0835638
0.437897 0.130143 -0.889556
0.262052 -0.821403 -0.506582
0.908093 0.116049 -0.402366
-0.982351 -0.124207 -0.139857
-0.918676 0.312398 -0.241746
-0.65153 0.190481 0.73432
-0.545792 -0.798112 -0.255201
-0.846278 0.242321 -0.474441
-0.106485 0.985857 0.12941
0.20218 -0.0385532 0.978589
0.54701 -0.789702 0.277761
-0.8528 -0.163196 -0.496083
-0.737323 0.0599371 -0.672876
-0.787732 -0.32203 -0.525143
0.628716 0.680871 -0.375674
-0.57895 0.512626 -0.63406
0.0259416 -0.13537 -0.990455
0.611561 -0.552087 0.566739
0.210409 -0.977586 -0.00728785
0.279241 -0.567878 -0.774299
0.904993 0.424578 0.0268482
-0.326136 0.853869 -0.405639
-0.475203 -0.117899 -0.871941
-0.1729 -0.970537 -0.167819
0.0624749 0.34998 0.934671