ITEM: TIMESTEP
1000
ITEM: NUMBER OF ATOMS
54
ITEM: BOX BOUNDS pp pp pp
0.0000000000000000e+00 8.6303750400000006e+00
0.0000000000000000e+00 8.6303750400000006e+00
0.0000000000000000e+00 8.6303750400000006e+00
ITEM: ATOMS c_outsp[1] c_outsp[2] c_outsp[3]
-0.0769471 -0.298075 -0.951436
0.702616 0.687205 -0.184609
-0.428284 -0.025715 -0.903278
-0.0202529 -0.562229 0.826734
-0.0334474 0.867255 -0.496739
0.652752 -0.756556 0.0392153
0.742717 -0.0200067 0.669306
0.146583 0.494362 -0.856808
0.135749 0.520164 -0.843209
0.829116 0.370734 -0.418477
-0.250611 -0.415329 -0.874469
-0.356392 -0.381486 0.852909
-0.315621 -0.540238 -0.780081
-0.841783 0.122282 -0.525784
-0.633514 -0.0500364 -0.772112
0.905691 -0.176588 -0.385409
-0.819994 0.528627 -0.219462
0.669242 0.680043 0.299428
0.631436 0.228021 -0.741145
-0.612603 -0.64849 0.45186
-0.776632 -0.0874888 -0.623849
-0.554383 0.623516 -0.55126
0.862789 -0.338817 0.37523
0.16112 -0.662077 -0.731912
-0.532768 -0.24677 -0.809483
0.459985 0.189454 -0.86748
0.611037 0.718794 0.331616
-0.0242768 0.738813 0.673473
-0.513792 0.110909 0.850716
-0.758884 -0.49495 -0.423224
0.499773 0.835064 0.22999
0.511219 -0.826851 0.234462
0.303699 0.941969 0.143041
-0.378667 -0.676047 -0.632117
-0.940369 0.339865 0.014085
-0.508312 -0.352928 -0.785532
0.149394 -0.370688 -0.916663
0.459344 -0.506361 -0.729796
-0.287774 -0.729863 0.620069
-0.780526 0.141709 0.608849
0.83733 -0.499932 0.221239
0.125282 -0.990021 0.0645157
0.422177 -0.861042 -0.2835
-0.643183 -0.314205 -0.698277
0.27366 -0.723437 -0.633837
0.666949 0.712059 -0.219433
0.86714 -0.376538 -0.326017
0.914701 0.0201732 0.403627
-0.776123 0.608697 0.164685
0.0477142 -0.683397 -0.728486
-0.889934 -0.451192 -0.0666556
-0.379326 0.924218 0.0439714
0.219425 0.0930875 0.971178
-0.274251 0.59027 0.759189
ITEM: TIMESTEP
1005
ITEM: NUMBER OF ATOMS
54
ITEM: BOX BOUNDS pp pp pp
0.0000000000000000e+00 8.6303750400000006e+00
0.0000000000000000e+00 8.6303750400000006e+00
0.0000000000000000e+00 8.6303750400000006e+00
ITEM: ATOMS c_outsp[1] c_outsp[2] c_outsp[3]
-0.0636316 -0.278558 -0.958309
0.690734 0.697405 -0.191085
-0.415411 -0.0338076 -0.909005
-0.0941531 -0.539972 0.8364
0.0195427 0.866271 -0.499193
0.61581 -0.782997 0.0877115
0.732769 -0.0397957 0.679313
0.187466 0.487947 -0.852505
0.106979 0.493096 -0.863373
0.822122 0.373313 -0.429828
-0.234614 -0.430339 -0.871645
-0.380407 -0.387254 0.839836
-0.341695 -0.546609 -0.764502
-0.837946 0.17103 -0.518262
-0.638347 -0.0193842 -0.769505
0.902791 -0.184588 -0.388452
-0.783128 0.585124 -0.210572
0.663075 0.684936 0.301984
0.671088 0.19767 -0.71454
-0.647597 -0.62835 0.431038
-0.790617 -0.058647 -0.609496
-0.503116 0.675299 -0.539301
0.848033 -0.371231 0.378189
0.190864 -0.637567 -0.746377
-0.537756 -0.217334 -0.814607
0.457256 0.172733 -0.872399
0.626706 0.694961 0.352518
-0.0564247 0.737642 0.67283
-0.481136 0.0986873 0.871074
-0.750171 -0.509543 -0.421437
0.502025 0.822746 0.266571
0.477454 -0.852635 0.212251
0.308085 0.937575 0.161359
-0.401329 -0.653975 -0.641289
-0.943037 0.332297 -0.0161095
-0.488704 -0.354592 -0.79714
0.180567 -0.41393 -0.892221
0.435575 -0.548251 -0.71393
-0.304995 -0.703234 0.642215
-0.785565 0.134402 0.604006
0.857159 -0.462269 0.227128
0.0820849 -0.994945 0.0578476
0.425972 -0.850472 -0.308618
-0.627795 -0.263097 -0.732566
0.258006 -0.722504 -0.641421
0.697245 0.669641 -0.255794
0.837706 -0.436461 -0.328253
0.909775 -0.00688597 0.415045
-0.734549 0.659979 0.157686
0.0404831 -0.67084 -0.740496
-0.887876 -0.449691 -0.0972356
-0.348847 0.936774 0.0275813
0.213114 0.0846881 0.97335
-0.281649 0.55548 0.782378
ITEM: TIMESTEP
1010
ITEM: NUMBER OF ATOMS
54
ITEM: BOX BOUNDS pp pp pp
0.0000000000000000e+00 8.6303750400000006e+00
0.0000000000000000e+00 8.6303750400000006e+00
0.0000000000000000e+00 8.6303750400000006e+00
ITEM: ATOMS c_outsp[1] c_outsp[2] c_outsp[3]
0.678344 0.707795 -0.197166
-0.404527 -0.0428381 -0.913522
0.0723125 0.861943 -0.501821
0.722452 -0.0593404 0.688869
0.0753809 0.469238 -0.879849
-0.742457 0.638639 -0.202234
-0.421746 -0.631975 -0.650184
0.578498 -0.804191 0.136441
-0.220342 -0.447268 -0.866834
-0.404769 -0.39282 0.825745
-0.831707 0.218345 -0.510479
-0.641155 0.0126958 -0.767306
-0.0500483 -0.260169 -0.964265
0.899828 -0.192025 -0.391708
-0.680798 -0.606553 0.410618
-0.804001 -0.0280223 -0.593967
-0.446806 0.722652 -0.527389
0.724685 0.623998 -0.292334
0.904262 -0.0340929 0.425616
-0.167553 -0.513712 0.841443
0.814515 0.376053 -0.441757
0.656864 0.68999 0.304047
0.22082 -0.613626 -0.758091
-0.541771 -0.188662 -0.81908
0.452027 0.157831 -0.87793
0.64296 0.670075 0.370948
-0.790451 0.12636 0.59935
-0.689483 0.708321 0.151312
0.22857 0.479367 -0.847327
-0.448888 0.0865286 0.889389
0.443234 -0.875994 0.190205
0.312657 0.932739 0.179565
0.0380884 -0.998013 0.0501842
0.804065 -0.493273 -0.331906
-0.368909 -0.54988 -0.749359
-0.740433 -0.524939 -0.419759
-0.944918 0.32386 -0.0473808
-0.467764 -0.358844 -0.80773
0.21185 -0.456707 -0.864024
0.408964 -0.588165 -0.697718
-0.322169 -0.674825 0.663941
-0.317163 0.948294 0.0120569
0.707729 0.164408 -0.687088
-0.0891081 0.735474 0.671668
0.502781 0.810036 0.301751
0.428361 -0.839745 -0.33367
-0.609411 -0.210534 -0.764391
0.242487 -0.721134 -0.648972
0.831989 -0.404044 0.380188
0.875256 -0.42457 0.231662
0.0334429 -0.657649 -0.752582
-0.885217 -0.447356 -0.127527
0.207306 0.0759153 0.975326
-0.288146 0.520347 0.803873
ITEM: TIMESTEP
1015
ITEM: NUMBER OF ATOMS
54
ITEM: BOX BOUNDS pp pp pp
0.0000000000000000e+00 8.6303750400000006e+00
0.0000000000000000e+00 8.6303750400000006e+00
0.0000000000000000e+00 8.6303750400000006e+00
ITEM: ATOMS c_outsp[1] c_outsp[2] c_outsp[3]
0.665483 0.718334 -0.202803
-0.39568 -0.0526091 -0.91688
0.124554 0.854278 -0.504673
0.711761 -0.0786167 0.698008
0.0414473 0.448902 -0.892619
-0.698314 0.688855 -0.194517
-0.439967 -0.61019 -0.658861
0.541294 -0.820217 0.185054
-0.208047 -0.465858 -0.860054
-0.429397 -0.398218 0.810581
-0.823286 0.264061 -0.502465
-0.641757 0.0460006 -0.765527
-0.0362489 -0.24296 -0.969359
0.896816 -0.198953 -0.395143
-0.71217 -0.583237 0.390702
-0.816554 0.00435612 -0.577252
-0.385953 0.765028 -0.515532
0.748815 0.575355 -0.329004
0.898176 -0.0614194 0.435325
-0.239924 -0.483428 0.841863
0.806336 0.378827 -0.454216
0.650621 0.695165 0.305674
0.250836 -0.590459 -0.767098
-0.544996 -0.160757 -0.822883
0.444447 0.145005 -0.883991
0.659762 0.644236 0.386878
-0.795139 0.117575 0.59492
-0.641131 0.753486 0.145634
0.269769 0.468557 -0.841237
-0.417108 0.0745758 0.905792
0.408727 -0.896984 0.168408
0.317358 0.927503 0.197539
-0.00659878 -0.999114 0.0415539
0.766561 -0.546602 -0.337063
-0.39692 -0.550025 -0.734797
-0.729619 -0.541158 -0.418095
-0.945902 0.314512 -0.0796947
-0.445763 -0.365743 -0.817023
0.243014 -0.498712 -0.832004
0.379631 -0.625835 -0.681331
-0.339302 -0.644595 0.685107
-0.284296 0.958733 -0.00257324
0.74114 0.128399 -0.658957
-0.122205 0.732291 0.669937
0.502081 0.797089 0.335507
0.429293 -0.828904 -0.358644
-0.587887 -0.156897 -0.793582
0.227102 -0.719359 -0.656466
0.81459 -0.437187 0.381198
0.891665 -0.386997 0.234877
0.0265973 -0.643841 -0.764697
-0.882001 -0.444154 -0.157484
0.201988 0.0668209 0.977106
-0.293706 0.485018 0.823707
ITEM: TIMESTEP
1020
ITEM: NUMBER OF ATOMS
54
ITEM: BOX BOUNDS pp pp pp
0.0000000000000000e+00 8.6303750400000006e+00
0.0000000000000000e+00 8.6303750400000006e+00
0.0000000000000000e+00 8.6303750400000006e+00
ITEM: ATOMS c_outsp[1] c_outsp[2] c_outsp[3]
0.652186 0.728979 -0.207947
-0.388901 -0.0629268 -0.919128
0.175958 0.843319 -0.507791
0.700687 -0.0975981 0.706762
0.00569572 0.432332 -0.901696
-0.651068 0.735499 -0.187486
-0.456054 -0.588755 -0.66737
0.504658 -0.831221 0.233221
-0.197955 -0.48583 -0.851342
-0.4542 -0.403478 0.794297
-0.812908 0.308048 -0.494254
-0.640001 0.0803064 -0.764166
-0.0222818 -0.226975 -0.973646
0.893768 -0.205423 -0.398724
-0.74169 -0.558541 0.371386
-0.828042 0.0384316 -0.559348
-0.321116 0.80195 -0.503747
0.769199 0.523991 -0.365741
0.891532 -0.0888343 0.444162
-0.310733 -0.449139 0.837687
0.797629 0.38151 -0.46716
0.644363 0.700423 0.306926
0.280764 -0.568263 -0.773465
-0.547602 -0.133605 -0.826004
0.434692 0.134497 -0.890479
0.677063 0.617538 0.400292
-0.799584 0.108038 0.590756
-0.589721 0.795254 0.140715
0.310935 0.455451 -0.834197
-0.385832 0.0629653 0.920418
0.374088 -0.915678 0.14694
0.32214 0.921916 0.215164
-0.0518587 -0.998142 0.03199
0.725577 -0.596111 -0.343789
-0.425391 -0.547059 -0.72095
-0.717678 -0.558208 -0.416343
-0.945878 0.304212 -0.113004
-0.423007 -0.375312 -0.824746
0.273817 -0.53962 -0.796137
0.347727 -0.661006 -0.664949
-0.35639 -0.612511 0.705561
-0.250271 0.968039 -0.016277
0.771124 0.0898234 -0.630316
-0.155593 0.728086 0.667594
0.49997 0.784051 0.367824
0.42872 -0.81799 -0.383526
-0.563099 -0.102606 -0.819995
0.211846 -0.717208 -0.663879
0.795767 -0.470584 0.38119
0.906438 -0.349695 0.23682
0.0199491 -0.629437 -0.776796
-0.878267 -0.440059 -0.187071
0.197142 0.057453 0.97869
-0.298319 0.449636 0.841922
ITEM: TIMESTEP
1025
ITEM: NUMBER OF ATOMS
54
ITEM: BOX BOUNDS pp pp pp
0.0000000000000000e+00 8.6303750400000006e+00
0.0000000000000000e+00 8.6303750400000006e+00
0.0000000000000000e+00 8.6303750400000006e+00
ITEM: ATOMS c_outsp[1] c_outsp[2] c_outsp[3]
0.638493 0.739693 -0.212558
-0.3842 -0.0736026 -0.920312
0.226224 0.829147 -0.511212
0.689221 -0.116256 0.715164
-0.0313408 0.419699 -0.907122
-0.601115 0.778349 -0.181202
-0.470078 -0.567791 -0.675752
0.46903 -0.837411 0.28063
-0.19026 -0.506889 -0.840752
-0.479082 -0.40863 0.776854
-0.800797 0.350207 -0.48588
-0.635768 0.115374 -0.763209
-0.00819333 -0.21226 -0.977179
0.890693 -0.211491 -0.402415
-0.769347 -0.532608 0.352753
-0.838226 0.0741188 -0.540263
-0.252901 0.833013 -0.492066
0.785428 0.470236 -0.402469
0.884344 -0.116304 0.452116
-0.379442 -0.4109 0.828966
0.788442 0.383979 -0.480541
0.638103 0.705722 0.307864
0.310457 -0.54723 -0.777275
-0.549748 -0.10717 -0.828427
0.422965 0.126531 -0.897268
0.694796 0.590074 0.411183
-0.803746 0.0977354 0.58689
-0.535497 0.833416 0.136607
0.351925 0.439985 -0.826173
-0.355074 0.0518255 0.933401
0.339459 -0.93216 0.125874
0.326964 0.916035 0.232325
-0.0975638 -0.994996 0.0215307
0.681528 -0.641502 -0.352128
-0.453991 -0.541039 -0.707933
-0.704558 -0.576083 -0.414398
-0.944732 0.292918 -0.147246
-0.39983 -0.387536 -0.830633
0.304015 -0.579098 -0.756452
0.313431 -0.693444 -0.648766
-0.373421 -0.578554 0.725143
-0.215124 0.976155 -0.0290202
0.797501 0.0488718 -0.601335
-0.189149 0.72286 0.664602
0.496501 0.771059 0.398691
0.426603 -0.807034 -0.408297
-0.534952 -0.0481112 -0.843511
0.196714 -0.714705 -0.671193
0.775454 -0.504148 0.38014
0.919633 -0.3128 0.237554
0.013501 -0.614452 -0.788839
-0.87405 -0.435052 -0.216253
0.192745 0.0478548 0.980081
-0.301992 0.414334 0.858562
ITEM: TIMESTEP
1030
ITEM: NUMBER OF ATOMS
54
ITEM: BOX BOUNDS pp pp pp
0.0000000000000000e+00 8.6303750400000006e+00
0.0000000000000000e+00 8.6303750400000006e+00
0.0000000000000000e+00 8.6303750400000006e+00
ITEM: ATOMS c_outsp[1] c_outsp[2] c_outsp[3]
0.624441 0.75044 -0.216595
-0.381568 -0.0844544 -0.920474
0.275061 0.811879 -0.514969
0.677356 -0.134558 0.723245
-0.0691246 0.411104 -0.908964
-0.548868 0.81723 -0.175725
-0.482119 -0.547409 -0.684035
0.43482 -0.839051 0.326993
-0.185126 -0.528725 -0.828359
-0.503939 -0.413705 0.758217
-0.787171 0.390472 -0.477382
-0.628974 0.150953 -0.762631
0.0059721 -0.198854 -0.980011
0.887602 -0.217212 -0.40618
-0.795139 -0.50558 0.334877
-0.846871 0.111304 -0.52002
-0.181952 0.857895 -0.480531
0.797127 0.41447 -0.439095
0.876628 -0.143793 0.459181
-0.445516 -0.368809 0.815779
0.778828 0.386111 -0.494314
0.631859 0.71102 0.308553
0.339773 -0.527535 -0.778628
-0.551577 -0.0814005 -0.830142
0.409493 0.121308 -0.904212
0.712882 0.561935 0.419557
-0.807583 0.0866481 0.583354
-0.47872 0.867781 0.133352
0.392591 0.422099 -0.817132
-0.324825 0.0412747 0.944873
0.304968 -0.946526 0.10528
0.331797 0.90992 0.248911
-0.143577 -0.989586 0.0102181
0.634859 -0.68252 -0.362105
-0.482403 -0.53206 -0.695845
-0.690211 -0.594761 -0.412152
-0.942348 0.280588 -0.182345
-0.376595 -0.402361 -0.834435
0.333359 -0.616813 -0.713031
0.276951 -0.722937 -0.632978
-0.390373 -0.542715 0.743686
-0.178896 0.983023 -0.040766
0.820108 0.00574913 -0.57218
-0.222751 0.716625 0.660932
0.491732 0.75824 0.428103
0.422909 -0.796062 -0.432936
-0.503382 0.00610587 -0.864042
0.181703 -0.711874 -0.678395
0.753582 -0.537784 0.378024
0.931313 -0.27643 0.237156
0.0072564 -0.598903 -0.800788
-0.869384 -0.429119 -0.245006
0.188771 0.0380646 0.981283
-0.304754 0.379234 0.873674
ITEM: TIMESTEP
1035
ITEM: NUMBER OF ATOMS
54
ITEM: BOX BOUNDS pp pp pp
0.0000000000000000e+00 8.6303750400000006e+00
0.0000000000000000e+00 8.6303750400000006e+00
0.0000000000000000e+00 8.6303750400000006e+00
ITEM: ATOMS c_outsp[1] c_outsp[2] c_outsp[3]
0.610072 0.761185 -0.220024
-0.380984 -0.0953073 -0.919656
0.322196 0.791669 -0.519087
0.665085 -0.152472 0.731036
-0.107124 0.406578 -0.907314
-0.494753 0.852022 -0.171108
-0.492266 -0.527709 -0.692241
0.402402 -0.83645 0.372052
-0.182683 -0.551022 -0.814249
-0.528663 -0.41873 0.738363
-0.772241 0.428805 -0.468797
-0.619568 0.186788 -0.762395
0.0201709 -0.186796 -0.982192
0.884501 -0.222646 -0.409983
-0.819079 -0.477597 0.317823
-0.853751 0.149844 -0.498654
-0.108938 0.876351 -0.469192
0.803963 0.357118 -0.47551
0.868396 -0.171264 0.465357
-0.508426 -0.323009 0.798228
0.768842 0.387789 -0.508431
0.625647 0.716274 0.309058
0.368573 -0.509345 -0.777638
-0.553215 -0.0562325 -0.831138
0.394527 0.119003 -0.911146
0.731229 0.533209 0.425432
-0.811059 0.0747536 0.580168
-0.419668 0.898178 0.13098
0.432769 0.401734 -0.807044
-0.295064 0.0314195 0.954961
0.270727 -0.958876 0.0852228
0.336622 0.903635 0.264819
-0.189754 -0.98183 -0.00190256
0.586036 -0.718954 -0.37372
-0.510326 -0.520253 -0.684766
-0.674587 -0.614201 -0.409498
-0.938615 0.267185 -0.218208
-0.353687 -0.419689 -0.835923
0.361603 -0.652436 -0.666011
0.238521 -0.749299 -0.617785
-0.407213 -0.505004 0.761018
-0.14164 0.988579 -0.0514761
0.838802 -0.0393281 -0.543014
-0.256278 0.709398 0.656564
0.485725 0.74571 0.456057
0.417616 -0.785091 -0.457415
-0.468359 0.0595416 -0.88153
0.166811 -0.708733 -0.685471
0.730089 -0.571383 0.374822
0.941545 -0.240689 0.235717
0.0012197 -0.582803 -0.812612
-0.864296 -0.42225 -0.273309
0.185189 0.028115 0.982301
-0.306653 0.344451 0.887309
ITEM: TIMESTEP
1040
ITEM: NUMBER OF ATOMS
54
ITEM: BOX BOUNDS pp pp pp
0.0000000000000000e+00 8.6303750400000006e+00
0.0000000000000000e+00 8.6303750400000006e+00
0.0000000000000000e+00 8.6303750400000006e+00
ITEM: ATOMS c_outsp[1] c_outsp[2] c_outsp[3]
0.595425 0.771895 -0.222815
-0.382409 -0.105994 -0.917893
0.367375 0.768698 -0.523582
0.652405 -0.169963 0.738566
-0.144823 0.406084 -0.902287
-0.4392 0.882655 -0.1674
-0.500611 -0.508777 -0.700381
0.372112 -0.829956 0.415578
-0.183029 -0.573456 -0.798529
-0.553141 -0.423731 0.717277
-0.756203 0.465195 -0.460164
-0.607533 0.222625 -0.762458
0.0343598 -0.176123 -0.983768
0.881398 -0.227852 -0.413788
-0.841185 -0.448797 0.301643
-0.85865 0.189572 -0.476216
-0.0345449 0.888223 -0.458112
0.805657 0.298645 -0.511593
0.859664 -0.198678 0.470643
-0.567656 -0.273687 0.776442
0.758544 0.388902 -0.522845
0.619485 0.721444 0.309446
0.396727 -0.492809 -0.774434
-0.554768 -0.0315903 -0.831405
0.378342 0.119759 -0.917886
0.749734 0.503981 0.428839
-0.814136 0.0620249 0.577351
-0.358633 0.924451 0.129509
0.472283 0.378836 -0.795884
-0.265753 0.0223541 0.963782
0.236836 -0.969322 0.0657599
0.34143 0.897247 0.279952
-0.235939 -0.971655 -0.0147839
0.535543 -0.75064 -0.386953
-0.537482 -0.505782 -0.674758
-0.657642 -0.634349 -0.406334
-0.93342 0.25267 -0.254724
-0.331507 -0.439376 -0.834896
0.388506 -0.685651 -0.615585
0.198401 -0.772374 -0.603387
-0.4239 -0.465444 0.776962
-0.103418 0.992759 -0.0611114
0.853456 -0.0861319 -0.513998
-0.289613 0.701205 0.651487
0.478546 0.733577 0.482554
0.410708 -0.774134 -0.481701
-0.429892 0.111675 -0.895947
0.152036 -0.705299 -0.692414
0.704911 -0.604828 0.370518
0.950396 -0.205664 0.233344
-0.00460246 -0.566162 -0.824281
-0.858806 -0.414441 -0.30115
0.181966 0.0180326 0.983139
-0.307754 0.31009 0.899517
ITEM: TIMESTEP
1045
ITEM: NUMBER OF ATOMS
54
ITEM: BOX BOUNDS pp pp pp
0.0000000000000000e+00 8.6303750400000006e+00
0.0000000000000000e+00 8.6303750400000006e+00
0.0000000000000000e+00 8.6303750400000006e+00
ITEM: ATOMS c_outsp[1] c_outsp[2] c_outsp[3]
0.580544 0.782541 -0.224941
-0.385796 -0.116357 -0.915217
0.410372 0.74318 -0.528468
0.639313 -0.186996 0.745863
-0.181729 0.409524 -0.894016
-0.382638 0.90911 -0.164643
-0.507257 -0.490691 -0.708458
0.344241 -0.819945 0.457371
-0.186226 -0.595705 -0.781317
-0.577258 -0.428731 0.694955
-0.739238 0.499653 -0.451525
-0.592885 0.25821 -0.762768
0.0484948 -0.166868 -0.984786
0.878297 -0.232892 -0.417558
-0.861488 -0.419316 0.286377
-0.861372 0.230295 -0.452772
0.0405351 0.893437 -0.447356
0.801987 0.23955 -0.547205
0.850446 -0.225997 0.475044
-0.622709 -0.221076 0.750573
0.747996 0.389341 -0.537508
0.61339 0.726489 0.309786
0.424105 -0.478059 -0.769151
-0.556324 -0.00739189 -0.830932
0.361229 0.123684 -0.924238
0.768285 0.474335 0.42982
-0.816782 0.0484311 0.574911
-0.295921 0.946469 0.128945
0.510943 0.353359 -0.783629
-0.236845 0.0141593 0.971444
0.203379 -0.977974 0.0469454
0.346226 0.890821 0.294219
-0.281971 -0.959003 -0.0283765
0.483874 -0.777466 -0.401762
-0.563617 -0.488837 -0.665864
-0.639335 -0.65513 -0.402561
-0.926659 0.237012 -0.291767
-0.310472 -0.461233 -0.831187
0.413838 -0.716167 -0.561999
0.156871 -0.792036 -0.589974
-0.44038 -0.424079 0.791342
-0.0643036 0.995498 -0.0696324
0.863962 -0.134423 -0.485283
-0.322644 0.69208 0.645698
0.470265 0.721939 0.507597
0.40218 -0.763192 -0.505755
-0.388036 0.161978 -0.907299
0.137382 -0.701585 -0.699218
0.677992 -0.637989 0.365098
0.957936 -0.171425 0.230155
-0.0102006 -0.548988 -0.835768
-0.85293 -0.405691 -0.32852
0.179066 0.00783796 0.983806
-0.308141 0.276243 0.910351
ITEM: TIMESTEP
1050
ITEM: NUMBER OF ATOMS
54
ITEM: BOX BOUNDS pp pp pp
0.0000000000000000e+00 8.6303750400000006e+00
0.0000000000000000e+00 8.6303750400000006e+00
0.0000000000000000e+00 8.6303750400000006e+00
ITEM: ATOMS c_outsp[1] c_outsp[2] c_outsp[3]
0.565469 0.793093 -0.22638
-0.391085 -0.126242 -0.911655
0.45099 0.715347 -0.533748
0.625809 -0.203532 0.752953
-0.217382 0.416741 -0.88265
-0.325486 0.931414 -0.162873
-0.512306 -0.473517 -0.716466
0.319036 -0.806812 0.497263
-0.192307 -0.61745 -0.762741
-0.600897 -0.433751 0.671403
-0.721511 0.53221 -0.442916
-0.57567 0.293301 -0.763268
0.0625309 -0.159061 -0.985287
0.875202 -0.237832 -0.421258
-0.880026 -0.389281 0.272057
-0.86174 0.271797 -0.428405
0.115616 0.892001 -0.436998
0.792792 0.180358 -0.582195
0.840756 -0.25318 0.47857
-0.673108 -0.165455 0.720799
0.737263 0.389005 -0.552375
0.607381 0.731368 0.310144
0.45059 -0.465212 -0.761936
-0.557951 0.0164496 -0.829711
0.343496 0.130845 -0.929995
0.786763 0.444352 0.428433
-0.818961 0.0339373 0.572845
-0.231852 0.964122 0.129279
0.548543 0.325263 -0.770263
-0.208283 0.00690276 0.978044
0.170426 -0.984949 0.0288275
0.351027 0.88442 0.307541
-0.327681 -0.943826 -0.0426306
0.431531 -0.799367 -0.418083
-0.588504 -0.469635 -0.658107
-0.619626 -0.676452 -0.398091
-0.918233 0.220183 -0.329193
-0.290999 -0.485023 -0.824665
0.437378 -0.743721 -0.505549
0.11423 -0.808195 -0.57773
-0.456591 -0.38097 0.803982
-0.0243795 0.996733 -0.0770012
0.870227 -0.183951 -0.457019
-0.355262 0.682063 0.639202
0.460956 0.710883 0.531192
0.392038 -0.752265 -0.529532
-0.34289 0.209917 -0.915621
0.122855 -0.6976 -0.705876
0.649282 -0.670725 0.358554
0.964234 -0.138025 0.226278
-0.0155616 -0.531283 -0.847052
-0.846675 -0.396004 -0.355419
0.176451 -0.00245437 0.984306
-0.307912 0.242996 0.91986
ITEM: TIMESTEP
1055
ITEM: NUMBER OF ATOMS
54
ITEM: BOX BOUNDS pp pp pp
0.0000000000000000e+00 8.6303750400000006e+00
0.0000000000000000e+00 8.6303750400000006e+00
0.0000000000000000e+00 8.6303750400000006e+00
ITEM: ATOMS c_outsp[1] c_outsp[2] c_outsp[3]
0.550241 0.803526 -0.227116
-0.398207 -0.135508 -0.907231
0.489061 0.685452 -0.539421
0.611898 -0.219535 0.759859
-0.251361 0.427529 -0.868353
-0.26815 0.949639 -0.162118
-0.515869 -0.457309 -0.724394
0.296697 -0.790963 0.535115
-0.20127 -0.638377 -0.742943
-0.623943 -0.438809 0.646639
-0.703166 0.562917 -0.434375
-0.555962 0.327665 -0.763899
0.0764213 -0.152731 -0.985309
0.872112 -0.242738 -0.424852
-0.896842 -0.358816 0.2587
-0.859605 0.313846 -0.403212
0.190025 0.884005 -0.427113
0.777984 0.121611 -0.616403
0.830609 -0.280189 0.481231
-0.718408 -0.107147 0.687321
0.726412 0.3878 -0.567395
0.601477 0.736044 0.310588
0.476065 -0.454363 -0.752938
-0.559696 0.0400225 -0.827731
0.325462 0.141271 -0.934942
0.805044 0.414113 0.424752
-0.820641 0.0185054 0.571145
-0.166754 0.977326 0.130489
0.584861 0.294523 -0.755774
-0.180009 0.000638377 0.983665
0.138036 -0.990361 0.0114497
0.355863 0.8781 0.319847
-0.372894 -0.926091 -0.0574956
0.379014 -0.816333 -0.435832
-0.611949 -0.44841 -0.651496
-0.598486 -0.698204 -0.392844
-0.908052 0.20216 -0.366843
-0.273505 -0.510462 -0.815244
0.458925 -0.768086 -0.446579
0.0707915 -0.820793 -0.566823
-0.472458 -0.336198 0.814711
0.0162592 0.996402 -0.0831817
0.872177 -0.234455 -0.429345
-0.387365 0.671197 0.632015
0.450695 0.70049 0.553343
0.380298 -0.741344 -0.552977
-0.294599 0.254967 -0.920979
0.108465 -0.693354 -0.712388
0.618736 -0.702886 0.35088
0.969356 -0.1055 0.221854
-0.0206677 -0.513048 -0.858111
-0.84004 -0.38539 -0.381848
0.174085 -0.012836 0.984647
-0.307177 0.210422 0.928097
ITEM: TIMESTEP
1060
ITEM: NUMBER OF ATOMS
54
ITEM: BOX BOUNDS pp pp pp
0.0000000000000000e+00 8.6303750400000006e+00
0.0000000000000000e+00 8.6303750400000006e+00
0.0000000000000000e+00 8.6303750400000006e+00
ITEM: ATOMS c_outsp[1] c_outsp[2] c_outsp[3]
0.534902 0.813812 -0.227135
-0.407086 -0.144016 -0.901965
0.524452 0.65376 -0.54548
0.597585 -0.23497 0.766603
-0.283286 0.441637 -0.851297
-0.211017 0.963898 -0.162396
-0.518057 -0.442115 -0.732224
0.277379 -0.772806 0.570816
-0.213084 -0.658183 -0.722073
-0.64628 -0.443917 0.620692
-0.684331 0.591835 -0.425938
-0.533859 0.361082 -0.764601
0.0901167 -0.147902 -0.984888
0.869027 -0.247679 -0.428308
-0.911988 -0.328035 0.246315
-0.854846 0.356197 -0.377307
0.263118 0.869615 -0.417778
0.757541 0.0638589 -0.649656
0.820018 -0.306985 0.483043
-0.758197 -0.0465184 0.650364
0.715508 0.385639 -0.582521
0.595696 0.74048 0.311186
0.500425 -0.445591 -0.74231
-0.561592 0.0634144 -0.824981
0.307453 0.154942 -0.938864
0.823003 0.383694 0.418862
-0.821789 0.00209436 0.569788
-0.100963 0.986022 0.132538
0.61966 0.261125 -0.740159
-0.151959 -0.00459294 0.988376
0.106253 -0.994326 -0.00514947
0.360772 0.871912 0.331077
-0.41743 -0.905778 -0.0729217
0.326819 -0.828401 -0.454908
-0.633786 -0.425413 -0.646018
-0.575888 -0.720259 -0.386757
-0.896038 0.182928 -0.40454
-0.258394 -0.537224 -0.802884
0.478294 -0.789081 -0.385468
0.0268794 -0.829808 -0.557401
-0.487899 -0.289867 0.823366
0.0575072 0.994447 -0.088142
0.869755 -0.285664 -0.402395
-0.418857 0.659535 0.624157
0.439561 0.690827 0.574059
0.366989 -0.730415 -0.576031
-0.243361 0.29662 -0.923467
0.0942262 -0.688854 -0.71875
0.586321 -0.734309 0.342079
0.973365 -0.0738708 0.217033
-0.0254958 -0.494281 -0.868928
-0.833016 -0.373859 -0.407815
0.171927 -0.0233045 0.984834
-0.306061 0.178587 0.935112
ITEM: TIMESTEP
1065
ITEM: NUMBER OF ATOMS
54
ITEM: BOX BOUNDS pp pp pp
0.0000000000000000e+00 8.6303750400000006e+00
0.0000000000000000e+00 8.6303750400000006e+00
0.0000000000000000e+00 8.6303750400000006e+00
ITEM: ATOMS c_outsp[1] c_outsp[2] c_outsp[3]
0.519492 0.823929 -0.226428
-0.417638 -0.151635 -0.895872
0.557064 0.620546 -0.551909
0.582883 -0.249801 0.773206
-0.312828 0.458777 -0.831662
-0.154449 0.974342 -0.16372
-0.518984 -0.427968 -0.739932
0.261193 -0.752744 0.604281
-0.227687 -0.676577 -0.700287
-0.667801 -0.449087 0.593602
-0.665112 0.619036 -0.417638
-0.509481 0.393348 -0.765314
0.103565 -0.144595 -0.984056
0.865941 -0.252727 -0.431596
-0.92552 -0.297045 0.234898
-0.847377 0.398595 -0.350819
0.334281 0.84907 -0.409067
0.731519 0.00765325 -0.681778
0.808998 -0.333533 0.484023
-0.792105 0.0160258 0.610174
0.704618 0.382442 -0.597705
0.590054 0.744641 0.312003
0.523568 -0.438951 -0.730204
-0.563651 0.0867097 -0.821449
0.289797 0.171796 -0.941543
0.840514 0.353169 0.410863
-0.822373 -0.015339 0.568742
-0.0348216 0.990182 0.135378
0.652688 0.225076 -0.723422
-0.124073 -0.00876304 0.992234
0.0751103 -0.996955 -0.0209358
0.365806 0.865898 0.341184
-0.461104 -0.882885 -0.0888594
0.27543 -0.835663 -0.47519
-0.653885 -0.400905 -0.641646
-0.551815 -0.742473 -0.379782
-0.882129 0.162481 -0.442095
-0.246049 -0.564943 -0.787591
0.495324 -0.806574 -0.322633
-0.0171776 -0.835256 -0.549593
-0.502822 -0.242098 0.829794
0.0992493 0.990814 -0.0918547
0.86292 -0.337299 -0.376295
-0.449649 0.647131 0.61566
0.427637 0.681957 0.593347
0.352153 -0.719465 -0.598631
-0.189419 0.334389 -0.923203
0.0801594 -0.684107 -0.724964
0.552015 -0.764822 0.332155
0.976324 -0.0431439 0.211969
-0.030017 -0.474976 -0.879487
-0.825586 -0.361429 -0.433331
0.169938 -0.0338627 0.984873
-0.304693 0.147547 0.940953
ITEM: TIMESTEP
1070
ITEM: NUMBER OF ATOMS
54
ITEM: BOX BOUNDS pp pp pp
0.0000000000000000e+00 8.6303750400000006e+00
0.0000000000000000e+00 8.6303750400000006e+00
0.0000000000000000e+00 8.6303750400000006e+00
ITEM: ATOMS c_outsp[1] c_outsp[2] c_outsp[3]
0.504052 0.833854 -0.224989
-0.42977 -0.15824 -0.888964
0.58683 0.586085 -0.55869
0.567804 -0.263994 0.779683
-0.339705 0.478634 -0.809636
-0.0987821 0.98115 -0.166091
-0.518767 -0.414896 -0.747491
0.248204 -0.731165 0.635446
-0.244991 -0.693281 -0.677747
-0.688401 -0.454322 0.565416
-0.645596 0.6446 -0.409508
-0.48297 0.424278 -0.765982
0.116713 -0.142827 -0.982842
0.862848 -0.257953 -0.434688
-0.937498 -0.265941 0.224439
-0.837143 0.440781 -0.323888
0.402944 0.822674 -0.401053
0.700042 -0.046465 -0.712588
0.797563 -0.359796 0.484191
-0.819806 0.0800438 0.567019
0.693807 0.378137 -0.612898
0.58457 0.748495 0.313103
0.545401 -0.434481 -0.716774
-0.565871 0.109988 -0.817125
0.272817 0.19172 -0.942769
0.857453 0.322611 0.40087
-0.822358 -0.0338388 0.567963
0.031327 0.989804 0.138947
0.68368 0.186401 -0.705575
-0.0962932 -0.0118559 0.995282
0.0446304 -0.998359 -0.0358793
0.371022 0.860088 0.350132
-0.50373 -0.857424 -0.105261
0.225315 -0.838258 -0.496544
-0.672149 -0.375152 -0.638339
-0.52626 -0.764687 -0.371892
-0.866277 0.14082 -0.479305
-0.236823 -0.593215 -0.769423
0.509877 -0.820486 -0.258511
-0.0610504 -0.837183 -0.543505
-0.517129 -0.193032 0.833856
0.141361 0.985457 -0.0942995
0.851651 -0.389069 -0.351164
-0.479661 0.634044 0.606559
0.415007 0.673932 0.611216
0.335843 -0.708473 -0.620705
-0.133067 0.367818 -0.920328
0.0662884 -0.679121 -0.731027
0.515808 -0.794245 0.321119
0.978287 -0.013312 0.206825
-0.0341955 -0.455123 -0.889772
-0.817725 -0.348121 -0.458408
0.168079 -0.0445185 0.984768
-0.303213 0.117352 0.945669
ITEM: TIMESTEP
1075
ITEM: NUMBER OF ATOMS
54
ITEM: BOX BOUNDS pp pp pp
0.0000000000000000e+00 8.6303750400000006e+00
0.0000000000000000e+00 8.6303750400000006e+00
0.0000000000000000e+00 8.6303750400000006e+00
ITEM: ATOMS c_outsp[1] c_outsp[2] c_outsp[3]
0.48862 0.843566 -0.222817
-0.443387 -0.163711 -0.881253
0.61372 0.550652 -0.5658
0.552365 -0.277519 0.786051
-0.363686 0.500872 -0.785404
-0.0443232 0.984532 -0.169504
-0.517521 -0.402916 -0.754871
0.23844 -0.708442 0.664271
-0.264878 -0.708036 -0.654618
-0.707984 -0.459623 0.536195
-0.625854 0.668613 -0.401575
-0.454478 0.453703 -0.766552
0.1295 -0.142609 -0.981271
0.859735 -0.263431 -0.437561
-0.947985 -0.234811 0.214915
-0.824128 0.482496 -0.296665
0.468589 0.790788 -0.3938
0.663309 -0.0979733 -0.741905
0.785726 -0.385741 0.483569
-0.841024 0.145063 0.521186
0.683137 0.372661 -0.628051
0.579257 0.75201 0.314551
0.565834 -0.432198 -0.702166
-0.568234 0.133322 -0.811995
0.256826 0.214559 -0.94234
0.873703 0.292088 0.389009
-0.821709 -0.0534496 0.567396
0.0971393 0.984919 0.143171
0.71236 0.145151 -0.68664
-0.0685677 -0.0138671 0.99755
0.0148258 -0.998641 -0.0499541
0.376484 0.8545 0.357895
-0.54512 -0.829422 -0.122078
0.176921 -0.836376 -0.518819
-0.688514 -0.348421 -0.636043
-0.499225 -0.786732 -0.36308
-0.848455 0.117954 -0.515957
-0.231033 -0.621605 -0.748486
0.52184 -0.830794 -0.193558
-0.104415 -0.835671 -0.539213
-0.530713 -0.14283 0.83543
0.18371 0.978334 -0.0954637
0.835944 -0.440675 -0.327113
-0.50882 0.620337 0.596895
0.401758 0.666793 0.627676
0.318128 -0.697422 -0.642181
-0.0746443 0.396495 -0.914997
0.0526425 -0.673903 -0.736942
0.477705 -0.822389 0.30899
0.979309 0.0156435 0.201765
-0.0379884 -0.434713 -0.899768
-0.809397 -0.333959 -0.483061
0.16631 -0.0552844 0.984522
-0.301764 0.0880469 0.949308
ITEM: TIMESTEP
1080
ITEM: NUMBER OF ATOMS
54
ITEM: BOX BOUNDS pp pp pp
0.0000000000000000e+00 8.6303750400000006e+00
0.0000000000000000e+00 8.6303750400000006e+00
0.0000000000000000e+00 8.6303750400000006e+00
ITEM: ATOMS c_outsp[1] c_outsp[2] c_outsp[3]
0.473233 0.853046 -0.219914
-0.458384 -0.167933 -0.872744
0.637733 0.514516 -0.57321
0.536587 -0.290348 0.792321
-0.384592 0.52514 -0.759155
0.0086536 0.984717 -0.173944
-0.515365 -0.392037 -0.76204
0.23189 -0.684924 0.690728
-0.287208 -0.720599 -0.631069
-0.726462 -0.464986 0.506005
-0.60594 0.691162 -0.393867
-0.424175 0.481474 -0.76698
0.141867 -0.143947 -0.979364
0.856586 -0.269235 -0.440196
-0.957045 -0.203731 0.206298
-0.80835 0.523489 -0.269312
0.530749 0.753826 -0.387366
0.621583 -0.146376 -0.769551
0.773501 -0.411337 0.482181
-0.855538 0.210583 0.472979
0.672665 0.365957 -0.643115
0.57413 0.755156 0.316408
0.584787 -0.432101 -0.686523
-0.570711 0.156778 -0.806046
0.242123 0.240111 -0.940065
0.889152 0.261667 0.37542
-0.820388 -0.0742144 0.566971
0.162277 0.975589 0.147963
0.738444 0.101404 -0.666647
-0.0408515 -0.0148026 0.999056
-0.0142994 -0.997902 -0.0631377
0.382262 0.849142 0.364464