ITEM: TIMESTEP
0
ITEM: NUMBER OF ATOMS
54
ITEM: BOX BOUNDS pp pp pp
0.0000000000000000e+00 8.6303750400000006e+00
0.0000000000000000e+00 8.6303750400000006e+00
0.0000000000000000e+00 8.6303750400000006e+00
ITEM: ATOMS c_outsp[1] c_outsp[2] c_outsp[3]
0.601604 0.795089 -0.0768528
0.632622 -0.48477 -0.603976
0.80507 0.193026 -0.560896
-0.50291 -0.616191 -0.606127
-0.180365 -0.30508 -0.935091
0.388238 -0.921297 0.0219835
-0.841505 0.189122 -0.506065
0.608884 -0.756096 -0.239956
0.90069 0.00408149 0.434443
0.307666 0.770317 -0.558528
-0.531281 -0.306764 -0.789707
0.418236 -0.773787 0.475744
0.595244 -0.771511 -0.224622
0.329698 0.713747 0.617952
-0.259981 0.689588 -0.675928
-0.815582 0.54267 -0.200839
-0.762805 -0.63421 -0.126124
0.615155 0.268092 0.741425
0.281024 0.959656 0.00927919
0.691019 0.259459 -0.674666
-0.588104 -0.564173 -0.579519
-0.706982 -0.522268 -0.476878
0.475318 0.659128 -0.582771
-0.487167 0.856029 0.172866
0.188374 -0.691922 -0.696964
0.839941 0.132058 -0.526364
0.154905 -0.116711 -0.981011
0.0798551 0.864964 -0.495439
-0.798488 0.475379 0.369366
-0.906197 -0.419582 0.0525136
0.629887 0.647594 0.428793
0.613823 -0.750026 0.246339
0.561539 0.523047 0.641167
0.470989 -0.444044 0.76223
-0.691002 -0.716201 -0.0978384
-0.231951 -0.412474 -0.880945
-0.595287 0.448768 0.666514
-0.192917 -0.443042 0.875498
0.00337377 -0.196119 -0.980574
-0.725791 -0.643469 -0.243259
0.931673 0.360916 0.0415217
0.385046 -0.670099 -0.634592
0.299445 0.520753 0.799468
-0.0250968 0.962692 0.269435
0.591458 0.763488 -0.25935
-0.383006 0.155826 -0.910508
-0.565662 -0.660448 -0.493797
-0.723772 -0.685618 -0.0779868
-0.67723 -0.732277 -0.0716179
-0.613215 -0.773083 0.162203
0.219894 0.929128 -0.297267
-0.756226 0.619678 -0.21005
0.741396 -0.669481 0.0461265
-0.399573 -0.603626 -0.689911
ITEM: TIMESTEP
5
ITEM: NUMBER OF ATOMS
54
ITEM: BOX BOUNDS pp pp pp
0.0000000000000000e+00 8.6303750400000006e+00
0.0000000000000000e+00 8.6303750400000006e+00
0.0000000000000000e+00 8.6303750400000006e+00
ITEM: ATOMS c_outsp[1] c_outsp[2] c_outsp[3]
0.661757 0.74746 -0.0581493
0.618951 -0.472309 -0.627554
0.835227 0.156271 -0.527233
-0.559799 -0.570342 -0.601111
-0.165343 -0.267359 -0.949305
0.377024 -0.924333 0.058828
-0.835119 0.193999 -0.514725
0.572932 -0.795113 -0.198855
0.883006 -0.0122633 0.469201
0.356489 0.745228 -0.563516
-0.525481 -0.280368 -0.803283
0.404926 -0.777198 0.481662
0.540642 -0.816312 -0.203325
0.361658 0.664365 0.654082
-0.227473 0.687758 -0.689381
-0.77934 0.601946 -0.174043
-0.780524 -0.603245 -0.163942
0.590412 0.233944 0.772453
0.335742 0.941915 -0.00852812
0.682621 0.225521 -0.695104
-0.605064 -0.566954 -0.558982
-0.732586 -0.470254 -0.492116
0.513252 0.609426 -0.604295
-0.425257 0.887966 0.175139
0.157941 -0.685083 -0.711137
0.864697 0.0772649 -0.496316
0.126875 -0.0667385 -0.989671
0.0790936 0.872771 -0.48168
-0.804694 0.459639 0.375765
-0.91063 -0.410823 0.0444705
0.634697 0.651484 0.415607
0.587292 -0.779567 0.21763
0.539264 0.5233 0.659812
0.474868 -0.424424 0.770951
-0.69881 -0.70676 -0.110252
-0.207369 -0.393015 -0.895845
-0.620805 0.453751 0.639305
-0.232769 -0.390993 0.890473
-0.0036957 -0.195873 -0.980622
-0.711812 -0.654884 -0.25387
0.936408 0.348429 0.0416736
0.363989 -0.667957 -0.649111
0.330888 0.500095 0.800261
0.000937046 0.963747 0.266815
0.589417 0.760702 -0.271882
-0.36327 0.139968 -0.92111
-0.578226 -0.645899 -0.498466
-0.724027 -0.685582 -0.0759087
-0.675932 -0.731927 -0.0860197
-0.6463 -0.743494 0.171794
0.243933 0.916305 -0.31762
-0.725021 0.644776 -0.242092
0.735376 -0.675419 0.0550599
-0.461002 -0.573611 -0.677088
ITEM: TIMESTEP
10
ITEM: NUMBER OF ATOMS
54
ITEM: BOX BOUNDS pp pp pp
0.0000000000000000e+00 8.6303750400000006e+00
0.0000000000000000e+00 8.6303750400000006e+00
0.0000000000000000e+00 8.6303750400000006e+00
ITEM: ATOMS c_outsp[1] c_outsp[2] c_outsp[3]
0.718057 0.694699 -0.0422712
0.605671 -0.458904 -0.650054
0.862457 0.117648 -0.492267
-0.614308 -0.519117 -0.594259
-0.147059 -0.230617 -0.961868
0.364904 -0.926123 0.0956071
-0.828877 0.199425 -0.522679
0.530882 -0.832285 -0.159582
0.864098 -0.026422 0.502629
0.403268 0.717365 -0.568122
-0.518097 -0.2552 -0.816363
0.391829 -0.781022 0.486287
0.482157 -0.856765 -0.182969
0.388395 0.611297 0.68954
-0.194245 0.684657 -0.702505
-0.737923 0.658776 -0.146575
-0.794818 -0.572383 -0.201597
0.563022 0.200538 0.801742
0.39039 0.920255 -0.0269571
0.671501 0.192363 -0.715599
-0.622137 -0.567076 -0.539787
-0.753506 -0.416852 -0.508392
0.546277 0.556702 -0.62583
-0.361036 0.915446 0.177796
0.130199 -0.675825 -0.725472
0.884962 0.0220148 -0.465143
0.102469 -0.0136297 -0.994643
0.079456 0.879645 -0.468947
-0.810639 0.443838 0.381933
-0.915318 -0.401059 0.0366713
0.639605 0.654707 0.402821
0.560426 -0.806475 0.188468
0.516299 0.524088 0.677324
0.479393 -0.404108 0.779024
-0.706567 -0.697197 -0.121156
-0.181721 -0.376375 -0.908471
-0.645354 0.458562 0.610933
-0.271078 -0.336535 0.90181
-0.00976512 -0.195486 -0.980658
-0.696362 -0.667055 -0.264798
0.941139 0.335463 0.0415013
0.342896 -0.664683 -0.663792
0.361339 0.479085 0.799945
0.0277239 0.963839 0.265041
0.586386 0.758819 -0.283452
-0.344324 0.122908 -0.930771
-0.590261 -0.631544 -0.502737
-0.724097 -0.685661 -0.0745106
-0.673881 -0.732072 -0.0997754
-0.678651 -0.712077 0.179944
0.268082 0.902316 -0.337578
-0.692338 0.667744 -0.27347
0.72961 -0.680758 0.0650966
-0.520559 -0.538963 -0.662222
ITEM: TIMESTEP
15
ITEM: NUMBER OF ATOMS
54
ITEM: BOX BOUNDS pp pp pp
0.0000000000000000e+00 8.6303750400000006e+00
0.0000000000000000e+00 8.6303750400000006e+00
0.0000000000000000e+00 8.6303750400000006e+00
ITEM: ATOMS c_outsp[1] c_outsp[2] c_outsp[3]
0.770039 0.637322 -0.0293499
0.592866 -0.444622 -0.671432
0.886581 0.0772907 -0.456071
-0.665754 -0.462626 -0.585447
-0.125732 -0.195135 -0.972684
0.35189 -0.926653 0.13224
-0.82279 0.205455 -0.52991
0.483063 -0.866987 -0.122409
0.844215 -0.0384736 0.534622
0.447767 0.686915 -0.572409
-0.50931 -0.231378 -0.828896
0.37894 -0.78526 0.489664
0.420115 -0.892597 -0.163631
0.409611 0.554972 0.724034
-0.160319 0.680272 -0.715212
-0.691422 0.712651 -0.118595
-0.805821 -0.541793 -0.238984
0.533149 0.168037 0.829166
0.444594 0.89455 -0.0460136
0.657677 0.160243 -0.736059
-0.639258 -0.564588 -0.5221
-0.769683 -0.362388 -0.525607
0.574006 0.501481 -0.647328
-0.294858 0.938255 0.180932
0.105329 -0.664439 -0.739883
0.900775 -0.0332932 -0.433009
0.0818583 0.0420205 -0.995758
0.0808676 0.885646 -0.457266
-0.816273 0.428001 0.387961
-0.920246 -0.390259 0.029066
0.644631 0.657283 0.390424
0.533402 -0.830782 0.159009
0.492723 0.525445 0.693637
0.484576 -0.383167 0.786365
-0.714351 -0.687491 -0.130614
-0.155355 -0.362757 -0.918843
-0.668896 0.463114 0.581466
-0.307526 -0.279901 0.909441
-0.0147781 -0.195092 -0.980674
-0.679441 -0.679887 -0.275887
0.945832 0.322059 0.0409877
0.32183 -0.660248 -0.6786
0.390797 0.457761 0.798582
0.0552545 0.962907 0.264114
0.582491 0.757874 -0.293822
-0.32623 0.104765 -0.939467
-0.601839 -0.617412 -0.506549
-0.723969 -0.685875 -0.0737869
-0.671161 -0.73268 -0.112798
-0.710097 -0.678928 0.186599
0.292208 0.887147 -0.357189
-0.658315 0.688541 -0.304191
0.724082 -0.685489 0.0762224
-0.577773 -0.499877 -0.645214
ITEM: TIMESTEP
20
ITEM: NUMBER OF ATOMS
54
ITEM: BOX BOUNDS pp pp pp
0.0000000000000000e+00 8.6303750400000006e+00
0.0000000000000000e+00 8.6303750400000006e+00
0.0000000000000000e+00 8.6303750400000006e+00
ITEM: ATOMS c_outsp[1] c_outsp[2] c_outsp[3]
0.817292 0.575894 -0.0194878
0.580615 -0.429537 -0.691653
0.907426 0.0353389 -0.418724
-0.713452 -0.401079 -0.574562
-0.101605 -0.161174 -0.981682
0.337987 -0.925916 0.168655
-0.816864 0.212138 -0.536406
0.429876 -0.898631 -0.0875682
0.823601 -0.0485205 0.565091
0.489781 0.654096 -0.576431
-0.499306 -0.208997 -0.840841
0.36625 -0.789907 0.49184
0.354856 -0.923548 -0.145386
0.425056 0.495857 0.757267
-0.125726 0.674585 -0.727412
-0.63999 0.763061 -0.0902747
-0.813679 -0.511613 -0.276005
0.50098 0.13658 0.854614
0.497953 0.864712 -0.0657025
0.641193 0.129425 -0.756387
-0.656358 -0.559546 -0.506065
-0.781074 -0.307188 -0.543654
0.596116 0.444341 -0.668735
-0.227098 0.956212 0.184623
0.0834746 -0.651228 -0.754277
0.912218 -0.0882848 -0.400081
0.0651513 0.0995941 -0.992893
0.0832486 0.890828 -0.446649
-0.821546 0.412154 0.393943
-0.92539 -0.3784 0.0215984
0.649786 0.659233 0.378404
0.506387 -0.852541 0.129405
0.468622 0.527404 0.708688
0.490425 -0.361678 0.792888
-0.722223 -0.677611 -0.138702
-0.128637 -0.35232 -0.926997
-0.691395 0.46733 0.550977
-0.341816 -0.221345 0.913328
-0.0186924 -0.19483 -0.980659
-0.661059 -0.693285 -0.286979
0.950453 0.308268 0.0401173
0.300856 -0.654627 -0.693505
0.419271 0.436157 0.796228
0.0835083 0.960891 0.264034
0.577884 0.757882 -0.302762
-0.309045 0.0856635 -0.947182
-0.613041 -0.603524 -0.509842
-0.723634 -0.686235 -0.0737272
-0.667859 -0.733715 -0.12501
-0.74048 -0.644155 0.191712
0.316172 0.870793 -0.376503
-0.623085 0.70713 -0.334264
0.718775 -0.689598 0.0884155
-0.632191 -0.456604 -0.625977
ITEM: TIMESTEP
25
ITEM: NUMBER OF ATOMS
54
ITEM: BOX BOUNDS pp pp pp
0.0000000000000000e+00 8.6303750400000006e+00
0.0000000000000000e+00 8.6303750400000006e+00
0.0000000000000000e+00 8.6303750400000006e+00
ITEM: ATOMS c_outsp[1] c_outsp[2] c_outsp[3]
0.859471 0.511026 -0.012756
0.568993 -0.413732 -0.710684
0.924822 -0.00806106 -0.380314
-0.756723 -0.334783 -0.561507
-0.0749432 -0.128968 -0.988813
0.323188 -0.923912 0.204784
-0.811098 0.219522 -0.542153
0.371784 -0.926673 -0.0552582
0.802489 -0.0566861 0.593969
0.529136 0.619143 -0.580239
-0.48828 -0.188134 -0.852167
0.353743 -0.794951 0.492868
0.286741 -0.949377 -0.128307
0.434537 0.434461 0.788937
-0.0905095 0.667584 -0.739013
-0.583853 0.809504 -0.0617981
-0.818545 -0.481956 -0.312573
0.466724 0.106278 0.877994
0.550043 0.830694 -0.0860272
0.622123 0.100171 -0.776485
-0.673361 -0.552009 -0.491803
-0.787656 -0.251573 -0.562414
0.612357 0.385906 -0.689996
-0.158157 0.969171 0.188928
0.0647476 -0.636503 -0.768551
0.919412 -0.142615 -0.366527
0.0523882 0.158462 -0.985974
0.0865141 0.895246 -0.437092
-0.826411 0.396318 0.399971
-0.930719 -0.36546 0.0142067
0.655076 0.66058 0.366756
0.479532 -0.871831 0.0997999
0.444094 0.529995 0.722417
0.496948 -0.339729 0.798515
-0.730236 -0.667521 -0.145502
-0.10194 -0.345178 -0.932985
-0.712818 0.471137 0.519539
-0.37367 -0.161145 0.913457
-0.0214803 -0.194843 -0.980599
-0.641237 -0.70715 -0.297915
0.95497 0.294145 0.0388763
0.280041 -0.647799 -0.708473
0.446778 0.4143 0.792934
0.112453 0.957725 0.264795
0.572736 0.758844 -0.310048
-0.292822 0.0657357 -0.953905
-0.623955 -0.58989 -0.512552
-0.723086 -0.686749 -0.0743172
-0.664071 -0.735132 -0.136344
-0.769652 -0.607877 0.195247
0.339836 0.853254 -0.395562
-0.586773 0.723476 -0.363703
0.713671 -0.693067 0.101648
-0.683378 -0.409441 -0.604444
ITEM: TIMESTEP
30
ITEM: NUMBER OF ATOMS
54
ITEM: BOX BOUNDS pp pp pp
0.0000000000000000e+00 8.6303750400000006e+00
0.0000000000000000e+00 8.6303750400000006e+00
0.0000000000000000e+00 8.6303750400000006e+00
ITEM: ATOMS c_outsp[1] c_outsp[2] c_outsp[3]
0.896296 0.44336 -0.00919347
0.558067 -0.3973 -0.728501
0.938604 -0.0527557 -0.340938
-0.794916 -0.264149 -0.546199
-0.046029 -0.098727 -0.994049
0.307474 -0.920645 0.240568
-0.805488 0.227648 -0.547143
0.309306 -0.950617 -0.0256404
0.781103 -0.0631118 0.621205
0.565689 0.582312 -0.583874
-0.47643 -0.168842 -0.862848
0.341399 -0.800371 0.492801
0.216146 -0.969862 -0.112466
0.437923 0.371321 0.818745
-0.0547204 0.659256 -0.749925
-0.5233 0.851496 -0.0333565
-0.820577 -0.452909 -0.348607
0.430601 0.0772162 0.899233
0.600418 0.792497 -0.106988
0.600574 0.0727419 -0.796253
-0.690189 -0.542034 -0.479414
-0.789422 -0.195867 -0.581763
0.622562 0.326834 -0.711053
-0.0884526 0.977028 0.193888
0.0492228 -0.620581 -0.782596
0.922512 -0.195971 -0.332517
0.0435452 0.217999 -0.974977
0.0905753 0.898952 -0.42858
-0.830821 0.380511 0.406138
-0.936193 -0.35142 0.00682438
0.660496 0.661348 0.355478
0.452971 -0.888746 0.0703341
0.419244 0.533247 0.734767
0.504149 -0.317415 0.80317
-0.738433 -0.657179 -0.151105
-0.0756415 -0.341398 -0.93687
-0.733134 0.47447 0.48723
-0.402838 -0.099591 0.909837
-0.0231299 -0.195277 -0.980475
-0.620007 -0.721385 -0.308535
0.95935 0.27975 0.0372533
0.259451 -0.639745 -0.723472
0.473337 0.39221 0.788748
0.142042 0.953342 0.266388
0.567241 0.760736 -0.315465
-0.277612 0.0451169 -0.959633
-0.634673 -0.576507 -0.514617
-0.722321 -0.68742 -0.0755384
-0.659901 -0.736884 -0.146742
-0.797476 -0.570222 0.197178
0.363058 0.834538 -0.414409
-0.549502 0.737545 -0.392523
0.708751 -0.695875 0.115884
-0.73093 -0.358737 -0.580559
ITEM: TIMESTEP
35
ITEM: NUMBER OF ATOMS
54
ITEM: BOX BOUNDS pp pp pp
0.0000000000000000e+00 8.6303750400000006e+00
0.0000000000000000e+00 8.6303750400000006e+00
0.0000000000000000e+00 8.6303750400000006e+00
ITEM: ATOMS c_outsp[1] c_outsp[2] c_outsp[3]
0.927562 0.373565 -0.00880626
0.547895 -0.380338 -0.745087
0.948609 -0.0985828 -0.300705
-0.82742 -0.189683 -0.528579
-0.0151558 -0.0706334 -0.997387
0.290818 -0.916121 0.275949
-0.800023 0.236552 -0.551368
0.243005 -0.970024 0.00115969
0.759652 -0.0679543 0.64677
0.599336 0.543867 -0.587371
-0.463955 -0.151154 -0.872868
0.329193 -0.806142 0.491699
0.143467 -0.984797 -0.097936
0.435147 0.307005 0.846401
-0.0184224 0.649589 -0.760062
-0.458691 0.888581 -0.00514774
-0.819931 -0.424537 -0.384034
0.392842 0.049446 0.918276
0.648618 0.750173 -0.128584
0.576684 0.0473915 -0.815592
-0.706754 -0.529682 -0.468973
-0.786385 -0.140395 -0.601571
0.626649 0.267808 -0.73184
-0.018416 0.979719 0.199527
0.0369399 -0.603778 -0.796296
0.921698 -0.248076 -0.298213
0.0385372 0.277589 -0.959927
0.0953393 0.901998 -0.421082
-0.834731 0.36475 0.412531
-0.941766 -0.336268 -0.000618727
0.666037 0.661563 0.344571
0.426823 -0.903399 0.0411372
0.394187 0.537185 0.745687
0.512029 -0.29484 0.806781
-0.746842 -0.64654 -0.155605
-0.0501165 -0.341 -0.938726
-0.752315 0.477272 0.45413
-0.429094 -0.0369897 0.902502
-0.0236458 -0.19628 -0.980263
-0.597414 -0.735891 -0.318686
0.963563 0.265151 0.0352401
0.239159 -0.630449 -0.73847
0.498973 0.369901 0.783708
0.172218 0.947674 0.268802
0.561608 0.763513 -0.318817
-0.26346 0.0239465 -0.964373
-0.645292 -0.563357 -0.515972
-0.721341 -0.688245 -0.0773688
-0.655454 -0.738913 -0.156162
-0.823829 -0.531323 0.197487
0.385698 0.814665 -0.433079
-0.511387 0.749306 -0.420743
0.703998 -0.698 0.131085
-0.774473 -0.304885 -0.554289
ITEM: TIMESTEP
40
ITEM: NUMBER OF ATOMS
54
ITEM: BOX BOUNDS pp pp pp
0.0000000000000000e+00 8.6303750400000006e+00
0.0000000000000000e+00 8.6303750400000006e+00
0.0000000000000000e+00 8.6303750400000006e+00
ITEM: ATOMS c_outsp[1] c_outsp[2] c_outsp[3]
0.953137 0.302317 -0.0115677
0.538525 -0.36295 -0.760433
0.954677 -0.14537 -0.259728
-0.853683 -0.111986 -0.508611
0.0173756 -0.0448409 -0.998843
0.273182 -0.910346 0.310874
-0.794686 0.246267 -0.554822
0.173486 -0.984518 0.0250514
0.738331 -0.0713831 0.670651
0.630008 0.504079 -0.590757
-0.451054 -0.135078 -0.882216
0.317099 -0.812231 0.489622
0.0691184 -0.993999 -0.0847888
0.426212 0.242098 0.871626
0.0183103 0.638577 -0.76934
-0.390449 0.920347 0.0226267
-0.81676 -0.396884 -0.418791
0.353679 0.0229907 0.935084
0.694177 0.703829 -0.150807
0.550623 0.0243609 -0.834399
-0.722961 -0.51501 -0.460535
-0.778577 -0.085482 -0.6217
0.624628 0.209517 -0.752291
0.0515124 0.977227 0.205851
0.0279036 -0.586412 -0.809532
0.917172 -0.298693 -0.263776
0.0372232 0.336646 -0.940895
0.10071 0.904434 -0.414556
-0.838097 0.349049 0.419235
-0.947383 -0.319998 -0.00819555
0.671682 0.661255 0.334044
0.401186 -0.915914 0.0123298
0.369044 0.541827 0.755136
0.520588 -0.272114 0.809285
-0.755482 -0.635557 -0.159104
-0.0257311 -0.343959 -0.938632
-0.770336 0.479493 0.42032
-0.452239 0.0263453 0.891508
-0.0230497 -0.197999 -0.979931
-0.573514 -0.75057 -0.328217
0.967581 0.250417 0.0328319
0.219236 -0.619901 -0.753431
0.523713 0.347384 0.777849
0.20291 0.940656 0.272018
0.556061 0.767101 -0.319925
-0.250406 0.00236623 -0.968138
-0.655912 -0.550411 -0.516552
-0.72015 -0.689216 -0.0797829
-0.650841 -0.741162 -0.164574
-0.848601 -0.49132 0.196166
0.407616 0.793664 -0.451604
-0.472543 0.758722 -0.448379
0.699392 -0.699415 0.147206
-0.813674 -0.248317 -0.525616
ITEM: TIMESTEP
45
ITEM: NUMBER OF ATOMS
54
ITEM: BOX BOUNDS pp pp pp
0.0000000000000000e+00 8.6303750400000006e+00
0.0000000000000000e+00 8.6303750400000006e+00
0.0000000000000000e+00 8.6303750400000006e+00
ITEM: ATOMS c_outsp[1] c_outsp[2] c_outsp[3]
0.972964 0.230297 -0.017419
0.529994 -0.345246 -0.77454
0.956658 -0.192932 -0.218136
-0.873224 -0.0317411 -0.486284
0.051262 -0.021475 -0.998454
0.254518 -0.903325 0.345288
-0.789455 0.256818 -0.557499
0.10138 -0.993785 0.0459779
0.717315 -0.073577 0.692854
0.657672 0.463221 -0.594049
-0.437921 -0.120601 -0.890887
0.305089 -0.818601 0.486634
-0.00646091 -0.997304 -0.0730993
0.411194 0.177197 0.894159
0.0553928 0.626214 -0.777681
-0.319057 0.946428 0.0497645
-0.811215 -0.369977 -0.452822
0.313346 -0.00215564 0.949637
0.736626 0.653628 -0.173647
0.522592 0.00387506 -0.852574
-0.738702 -0.498079 -0.454133
-0.766053 -0.0314565 -0.642008
0.6166 0.152651 -0.772335
0.120889 0.969577 0.212853
0.0220839 -0.568796 -0.822182
0.909151 -0.347619 -0.22936
0.0394121 0.394614 -0.918001
0.106589 0.906311 -0.40895
-0.840878 0.333419 0.426328
-0.952981 -0.302607 -0.0159807
0.677412 0.660451 0.32391
0.376141 -0.926425 -0.0159781
0.343944 0.54719 0.763076
0.529822 -0.249352 0.810625
-0.764361 -0.624183 -0.161705
-0.00283779 -0.350201 -0.93667
-0.787177 0.481089 0.385883
-0.4721 0.0900944 0.876929
-0.021381 -0.20058 -0.979444
-0.548378 -0.765326 -0.336984
0.97138 0.235624 0.0300281
0.199757 -0.608098 -0.768319
0.547583 0.324663 0.771198
0.234034 0.932225 0.276016
0.550832 0.771399 -0.318633
-0.238485 -0.0194811 -0.970951
-0.666637 -0.537621 -0.516293
-0.718754 -0.690322 -0.0827515
-0.646172 -0.743567 -0.171961
-0.871694 -0.450353 0.193217
0.428674 0.771576 -0.470009
-0.433082 0.765758 -0.475452
0.694913 -0.700095 0.164201
-0.848242 -0.189504 -0.494544
ITEM: TIMESTEP
50
ITEM: NUMBER OF ATOMS
54
ITEM: BOX BOUNDS pp pp pp
0.0000000000000000e+00 8.6303750400000006e+00
0.0000000000000000e+00 8.6303750400000006e+00
0.0000000000000000e+00 8.6303750400000006e+00
ITEM: ATOMS c_outsp[1] c_outsp[2] c_outsp[3]
0.987061 0.158176 -0.026271
0.522327 -0.327337 -0.787417
0.954403 -0.241071 -0.176064
-0.885653 0.0502967 -0.461616
0.086202 -0.000633584 -0.996277
0.234774 -0.895063 0.379135
-0.784303 0.268227 -0.559396
0.0273404 -0.997581 0.0639139
0.696761 -0.0747221 0.713401
0.682329 0.42156 -0.597256
-0.424746 -0.107688 -0.898885
0.293133 -0.825212 0.482802
-0.0828113 -0.994576 -0.0629432
0.390241 0.112902 0.913764
0.0927308 0.612497 -0.785015
-0.245049 0.966522 0.0760662
-0.803436 -0.343832 -0.486077
0.272066 -0.0260262 0.961927
0.775502 0.599795 -0.197086
0.49282 -0.013861 -0.870021
-0.753864 -0.478946 -0.449777
-0.74889 0.0213516 -0.662351
0.602757 0.0978787 -0.791899
0.189275 0.956844 0.220508
0.0194172 -0.551239 -0.834121
0.897858 -0.394692 -0.195112
0.0448698 0.450983 -0.891404
0.112877 0.90768 -0.404197
-0.843034 0.317868 0.433881
-0.958493 -0.2841 -0.0240492
0.6832 0.659184 0.31419
0.351751 -0.935074 -0.0436876
0.319021 0.553282 0.769483
0.539724 -0.226675 0.81075
-0.773477 -0.61237 -0.163513
0.0182293 -0.359614 -0.932923
-0.802818 0.482026 0.350906
-0.488534 0.153935 0.858859
-0.0186973 -0.204166 -0.978758
-0.522088 -0.780066 -0.344851
0.974938 0.220851 0.0268325
0.180797 -0.59504 -0.783096
0.570613 0.301742 0.763776
0.265494 0.922323 0.280772
0.546159 0.776276 -0.314811
-0.227727 -0.0414529 -0.972842
-0.677567 -0.524924 -0.515129
-0.717164 -0.691547 -0.0862426
-0.641557 -0.746059 -0.178324
-0.893022 -0.408562 0.188652
0.44874 0.748452 -0.488315
-0.393121 0.770372 -0.501979
0.69054 -0.700016 0.18202
-0.877933 -0.128943 -0.461093
ITEM: TIMESTEP
55
ITEM: NUMBER OF ATOMS
54
ITEM: BOX BOUNDS pp pp pp
0.0000000000000000e+00 8.6303750400000006e+00
0.0000000000000000e+00 8.6303750400000006e+00
0.0000000000000000e+00 8.6303750400000006e+00
ITEM: ATOMS c_outsp[1] c_outsp[2] c_outsp[3]
0.995518 0.0866028 -0.0380061
0.515537 -0.309336 -0.799082
0.947778 -0.289572 -0.133659
-0.890676 0.133314 -0.434654
0.1219 0.0176124 -0.992386
0.213889 -0.885559 0.412355
-0.779197 0.280509 -0.560506
-0.0479685 -0.995731 0.0788643
0.676806 -0.0750085 0.73233
0.704015 0.379355 -0.600378
-0.411708 -0.0962796 -0.906216
0.281205 -0.832017 0.478196
-0.159449 -0.985706 -0.0543979
0.363572 0.0498058 0.930234
0.130221 0.597431 -0.791277
-0.169005 0.980392 0.101338
-0.793556 -0.318453 -0.518513
0.230055 -0.0486785 0.971959
0.81036 0.542614 -0.221102
0.461566 -0.028667 -0.886643
-0.768321 -0.457672 -0.447459
-0.727193 0.0726115 -0.682582
0.583378 0.0458419 -0.810906
0.256237 0.939149 0.228783
0.0198064 -0.53404 -0.845227
0.883524 -0.439784 -0.16117
0.0533268 0.505291 -0.8613
0.119473 0.908596 -0.400224
-0.844526 0.302405 0.441958
-0.963841 -0.26449 -0.0324757
0.689016 0.657486 0.304909
0.328063 -0.942006 -0.0707112
0.294412 0.560104 0.774342
0.550287 -0.204207 0.809619
-0.782817 -0.600077 -0.164637
0.0371582 -0.372039 -0.927473
-0.817244 0.482274 0.315474
-0.50142 0.217545 0.837408
-0.0150747 -0.208896 -0.977822
-0.494737 -0.7947 -0.351692
0.978238 0.206178 0.0232545
0.162434 -0.580738 -0.797721
0.592827 0.278619 0.755597
0.297184 0.9109 0.286256
0.542278 0.781568 -0.30836
-0.218154 -0.0634079 -0.973852
-0.688803 -0.512237 -0.512995
-0.715393 -0.692873 -0.090221
-0.637107 -0.748571 -0.183673
-0.912511 -0.366088 0.182491
0.467687 0.724355 -0.506536
-0.352774 0.772524 -0.527974
0.68625 -0.699153 0.200612
-0.902554 -0.0671595 -0.425308
ITEM: TIMESTEP
60
ITEM: NUMBER OF ATOMS
54
ITEM: BOX BOUNDS pp pp pp
0.0000000000000000e+00 8.6303750400000006e+00
0.0000000000000000e+00 8.6303750400000006e+00
0.0000000000000000e+00 8.6303750400000006e+00
ITEM: ATOMS c_outsp[1] c_outsp[2] c_outsp[3]
0.998491 0.0162001 -0.0524809
0.509624 -0.291354 -0.809565
0.936656 -0.338202 -0.0910772
-0.88811 0.216456 -0.405473
0.158069 0.0332175 -0.986869
0.191801 -0.87481 0.444883
-0.7741 0.293674 -0.560826
-0.123879 -0.988129 0.0908613
0.657566 -0.0746279 0.749692
0.722794 0.336853 -0.603406
-0.398977 -0.0862979 -0.912891
0.269277 -0.838969 0.472886
-0.235868 -0.970621 -0.0475413
0.331477 -0.0115152 0.943393
0.167752 0.58102 -0.796414
-0.0915369 0.987875 0.125396
-0.781701 -0.293838 -0.550093
0.187515 -0.0701904 0.979751
0.840779 0.48243 -0.245666
0.429109 -0.0403906 -0.902349
-0.781936 -0.43432 -0.447149
-0.701094 0.121993 -0.702556
0.558823 -0.00286095 -0.829282
0.321359 0.916657 0.237631
0.023123 -0.517487 -0.855378
0.866376 -0.4828 -0.127662
0.0644864 0.55713 -0.827918
0.126277 0.909113 -0.396948
-0.845317 0.287033 0.450611
-0.968946 -0.243795 -0.0413333
0.694829 0.655391 0.296101
0.305107 -0.947368 -0.0969728
0.270256 0.567651 0.777646
0.561496 -0.182074 0.8072
-0.79236 -0.587264 -0.165185
0.0536632 -0.387285 -0.920397
-0.830444 0.481812 0.279678
-0.510666 0.280604 0.8127
-0.0106079 -0.214899 -0.976579
-0.466431 -0.809143 -0.357393
0.981266 0.191688 0.0193089
0.144744 -0.56521 -0.812149
0.614252 0.255294 0.746672
0.328987 0.897915 0.292433
0.539418 0.787082 -0.299215
-0.209784 -0.0852077 -0.974028
-0.70044 -0.49946 -0.509826
-0.713455 -0.694279 -0.0946487
-0.632928 -0.751029 -0.188036
-0.9301 -0.323067 0.174762
0.485398 0.699357 -0.524679
-0.312168 0.772166 -0.553453
0.682018 -0.697484 0.219926
-0.921963 -0.00469573 -0.38725
ITEM: TIMESTEP
65
ITEM: NUMBER OF ATOMS
54
ITEM: BOX BOUNDS pp pp pp
0.0000000000000000e+00 8.6303750400000006e+00
0.0000000000000000e+00 8.6303750400000006e+00
0.0000000000000000e+00 8.6303750400000006e+00
ITEM: ATOMS c_outsp[1] c_outsp[2] c_outsp[3]
0.9962 -0.0524494 -0.0695294
0.504576 -0.273501 -0.818902
0.920926 -0.386711 -0.0484831
-0.877887 0.298843 -0.374175
0.194436 0.0461603 -0.979828
0.168448 -0.862807 0.476643
-0.76897 0.307725 -0.560348
-0.199731 -0.974739 0.0999624
0.639135 -0.0737717 0.765548
0.738759 0.294286 -0.606326
-0.386709 -0.0776446 -0.918927
0.257324 -0.846019 0.466944
-0.311538 -0.949285 -0.0424517
0.294311 -0.0705107 0.953105
0.205208 0.563277 -0.800381
-0.0132783 0.988888 0.148066
-0.767986 -0.269981 -0.580782
0.144631 -0.0906572 0.985324
0.86637 0.419646 -0.27074
0.395751 -0.0489103 -0.917055
-0.794565 -0.408956 -0.4488
-0.670756 0.169169 -0.722128
0.529529 -0.0476839 -0.846951
0.384245 0.889578 0.246998
0.0292078 -0.501855 -0.864458
0.846635 -0.523679 -0.0947095
0.078032 0.606152 -0.791512
0.133191 0.909289 -0.394276
-0.845371 0.271755 0.459887
-0.973719 -0.222041 -0.0506928
0.700603 0.652935 0.287804
0.282897 -0.951307 -0.122408
0.246692 0.575909 0.779405
0.573335 -0.160403 0.803466
-0.802079 -0.573896 -0.165265
0.0674877 -0.405121 -0.911769
-0.842413 0.480622 0.243606
-0.516204 0.342795 0.784873
-0.00541018 -0.222299 -0.974964
-0.437286 -0.823313 -0.361852
0.984012 0.177467 0.0150172
0.127802 -0.548486 -0.826335
0.634908 0.231767 0.737005
0.360779 0.883334 0.299266
0.537792 0.792598 -0.287345
-0.202626 -0.106718 -0.973424
-0.712568 -0.486473 -0.50556
-0.711369 -0.695742 -0.0994853
-0.62912 -0.753363 -0.19145
-0.945735 -0.279633 0.165502
0.501763 0.673542 -0.542748
-0.271432 0.769252 -0.578426
0.677815 -0.694989 0.239909
-0.936076 0.0578933 -0.347002
ITEM: TIMESTEP
70
ITEM: NUMBER OF ATOMS
54
ITEM: BOX BOUNDS pp pp pp
0.0000000000000000e+00 8.6303750400000006e+00
0.0000000000000000e+00 8.6303750400000006e+00
0.0000000000000000e+00 8.6303750400000006e+00
ITEM: ATOMS c_outsp[1] c_outsp[2] c_outsp[3]
0.988924 -0.118807 -0.0889662
0.500367 -0.255881 -0.827138
0.900495 -0.434825 -0.00605049
-0.860059 0.379594 -0.340892
0.23074 0.0564413 -0.971377
0.143771 -0.849541 0.507553
-0.763764 0.322658 -0.559067
-0.274874 -0.955592 0.106248
0.621584 -0.0726278 0.779973
0.752025 0.251865 -0.609117
-0.375045 -0.0702037 -0.924345
0.245324 -0.853116 0.460445
-0.385908 -0.921704 -0.0392059
0.252488 -0.126666 0.959274
0.242466 0.544217 -0.803143
0.0651257 0.983429 0.169193
-0.752516 -0.246876 -0.610551
0.101572 -0.110186 0.988707
0.886788 0.354716 -0.296282
0.361808 -0.0541384 -0.930679
-0.806056 -0.381651 -0.452345
-0.636372 0.213817 -0.741156
0.495997 -0.0881437 -0.863839
0.444525 0.858161 0.256821
0.0378734 -0.487402 -0.872356
0.824517 -0.562384 -0.0624228
0.0936351 0.652067 -0.752357
0.140119 0.909184 -0.392111
-0.844653 0.256573 0.469821
-0.978069 -0.199262 -0.0606214
0.706304 0.650154 0.280062
0.261436 -0.953967 -0.146962
0.223858 0.584854 0.779636
0.585785 -0.13932 0.798402
-0.811936 -0.559945 -0.164986
0.0784062 -0.425289 -0.901655
-0.853146 0.478694 0.207348
-0.517988 0.403807 0.754075
0.000387263 -0.231203 -0.972905
-0.407425 -0.837135 -0.36498
0.986472 0.1636 0.0104075
0.111681 -0.530604 -0.84023
0.654815 0.208037 0.726593
0.392431 0.867137 0.306711
0.537596 0.797868 -0.27276
-0.196684 -0.127808 -0.972101
-0.725264 -0.473134 -0.500136
-0.709154 -0.697239 -0.104688
-0.62578 -0.755497 -0.193968
-0.959372 -0.235915 0.154755
0.516684 0.647001 -0.560738
-0.230708 0.763732 -0.602899
0.673611 -0.691652 0.260511
-0.944863 0.120047 -0.304667
ITEM: TIMESTEP
75
ITEM: NUMBER OF ATOMS
54
ITEM: BOX BOUNDS pp pp pp
0.0000000000000000e+00 8.6303750400000006e+00
0.0000000000000000e+00 8.6303750400000006e+00
0.0000000000000000e+00 8.6303750400000006e+00
ITEM: ATOMS c_outsp[1] c_outsp[2] c_outsp[3]
0.976988 -0.182387 -0.110591
0.496964 -0.238591 -0.834327
0.875291 -0.482252 0.0360397
-0.834796 0.457837 -0.305778
0.266738 0.0640805 -0.961637
0.117714 -0.834995 0.537518
-0.758434 0.338464 -0.556974
-0.348681 -0.930785 0.109817
0.604965 -0.0713796 0.793046
0.762727 0.209786 -0.61175
-0.364108 -0.0638436 -0.929166
0.233259 -0.860209 0.453465
-0.458407 -0.887935 -0.0378783
0.206472 -0.17951 0.961845
0.279404 0.523861 -0.804676
0.143032 0.971575 0.188638
-0.735388 -0.224516 -0.639372
0.0584893 -0.128893 0.989932
0.901738 0.288146 -0.322243
0.327607 -0.0560227 -0.943152
-0.81625 -0.352483 -0.457702
-0.59817 0.255624 -0.759505
0.458784 -0.123827 -0.879877
0.501863 0.822695 0.267032
0.0489057 -0.474368 -0.878967
0.800223 -0.598905 -0.0309029
0.110962 0.694646 -0.710742
0.14697 0.908861 -0.390347
-0.843129 0.241484 0.480437
-0.981903 -0.175501 -0.0711824
0.711896 0.647083 0.272926
0.240715 -0.955487 -0.170591
0.201886 0.594457 0.778372
0.598819 -0.118951 0.792002
-0.821891 -0.54539 -0.164453
0.0862272 -0.447501 -0.890117
-0.862648 0.476024 0.170997
-0.515997 0.463333 0.720465
0.00663559 -0.241709 -0.970326
-0.376981 -0.850538 -0.366701
0.988645 0.150171 0.00551531
0.0964526 -0.511615 -0.853784
0.673989 0.184108 0.715432
0.42381 0.849314 0.314723
0.538995 0.802621 -0.255506
-0.191953 -0.148355 -0.970126
-0.738592 -0.459283 -0.493498
-0.70683 -0.698745 -0.110213
-0.622998 -0.757361 -0.195648
-0.970977 -0.192037 0.14257
0.530075 0.619834 -0.578642
-0.190152 0.75556 -0.626874
0.669371 -0.687457 0.281683
-0.948353 0.181205 -0.260366
ITEM: TIMESTEP
80
ITEM: NUMBER OF ATOMS
54
ITEM: BOX BOUNDS pp pp pp
0.0000000000000000e+00 8.6303750400000006e+00
0.0000000000000000e+00 8.6303750400000006e+00
0.0000000000000000e+00 8.6303750400000006e+00
ITEM: ATOMS c_outsp[1] c_outsp[2] c_outsp[3]
0.960761 -0.242756 -0.13419
0.494321 -0.22172 -0.840528
0.845268 -0.528678 0.0776008
-0.802387 0.532738 -0.269009
0.302203 0.069116 -0.950735
0.090234 -0.819153 0.566433
-0.752929 0.355128 -0.554059
-0.420553 -0.900478 0.110788
0.589305 -0.0702033 0.804855
0.771017 0.168222 -0.614194
-0.354005 -0.0584186 -0.933417
0.221115 -0.867251 0.446077
-0.528454 -0.848087 -0.0385387
0.156772 -0.228623 0.960809
0.315896 0.502233 -0.804967
0.219813 0.953483 0.20628
-0.716692 -0.202902 -0.66722
0.0155156 -0.146897 0.98903
0.910983 0.220482 -0.348567
0.293483 -0.054547 -0.954407
-0.824984 -0.321541 -0.464773
-0.55641 0.294289 -0.777047
0.418493 -0.154398 -0.895
0.555955 0.783501 0.277562
0.0620668 -0.462972 -0.884197
0.773946 -0.633252 -0.000241775
0.12968 0.733718 -0.666964
0.153658 0.908385 -0.388877
-0.840765 0.226487 0.49175
-0.98512 -0.150807 -0.0824343