ITEM: TIMESTEP
500
ITEM: NUMBER OF ATOMS
54
ITEM: BOX BOUNDS pp pp pp
0.0000000000000000e+00 8.6303750400000006e+00
0.0000000000000000e+00 8.6303750400000006e+00
0.0000000000000000e+00 8.6303750400000006e+00
ITEM: ATOMS c_outsp[1] c_outsp[2] c_outsp[3]
0.957311 -0.212859 -0.195568
-0.102101 0.473041 -0.875104
0.627446 0.475896 -0.616308
-0.0155098 -0.988923 -0.147618
-0.614473 -0.0865923 -0.784172
-0.751685 -0.574714 -0.323532
-0.417765 0.286716 0.862129
0.0726588 -0.941197 0.329953
-0.725013 0.277363 0.630417
0.910185 -0.184143 -0.371018
0.667487 0.209025 -0.714682
-0.310816 -0.0303644 0.949985
-0.40236 0.896363 0.186119
0.840513 0.532473 -0.100056
-0.418729 0.90788 -0.0205033
0.0449822 -0.594532 -0.802813
0.187535 -0.384343 -0.903942
-0.771989 -0.221998 0.595609
-0.597754 -0.49982 0.626793
0.463227 0.376726 0.802183
0.15374 -0.98803 0.0126605
-0.137084 -0.698253 -0.702603
0.757697 -0.451481 -0.471233
0.260178 -0.393086 0.881925
0.00283983 0.388427 -0.921475
-0.33916 0.0143592 -0.940619
-0.991473 0.113109 -0.0647081
-0.498525 0.828357 -0.255534
0.743171 -0.073562 0.665046
-0.869961 -0.443979 -0.214594
0.245527 0.36257 0.899033
-0.8401 0.238481 -0.487195
0.989907 -0.137186 0.0355541
0.543967 0.718301 -0.433756
-0.926942 0.170617 0.334168
-0.145057 0.55996 -0.815723
-0.54522 -0.786454 0.290217
-0.262371 0.476235 -0.839263
0.198136 0.690564 0.695603
-0.81405 0.184562 -0.550691
0.564495 -0.378267 0.733662
0.974058 0.0194877 0.225459
0.558429 -0.763145 -0.325218
0.399434 0.37627 -0.835986
0.220927 -0.802684 -0.553976
0.80241 0.406277 -0.437124
0.674294 -0.383251 -0.631226
-0.768569 -0.595245 -0.234491
-0.48392 -0.372892 -0.79169
0.421349 -0.573634 -0.702431
0.605683 0.707585 -0.363966
0.809354 0.0165751 -0.587087
-0.648959 0.2825 -0.706432
-0.897364 -0.409146 -0.16534
ITEM: TIMESTEP
505
ITEM: NUMBER OF ATOMS
54
ITEM: BOX BOUNDS pp pp pp
0.0000000000000000e+00 8.6303750400000006e+00
0.0000000000000000e+00 8.6303750400000006e+00
0.0000000000000000e+00 8.6303750400000006e+00
ITEM: ATOMS c_outsp[1] c_outsp[2] c_outsp[3]
0.958238 -0.225655 -0.175668
-0.109393 0.481999 -0.869316
0.629043 0.48954 -0.603867
-0.042481 -0.98185 -0.18484
-0.624009 -0.0819163 -0.777112
-0.76866 -0.565501 -0.298949
-0.401237 0.288926 0.869213
0.00416337 -0.940517 0.339722
-0.708536 0.291096 0.642838
0.900006 -0.198149 -0.388234
0.661603 0.19703 -0.723505
-0.321802 0.000543358 0.946807
-0.334664 0.914627 0.226842
0.857506 0.501907 -0.11302
-0.35207 0.935094 -0.0405707
0.045636 -0.587401 -0.808008
0.197723 -0.389922 -0.89937
-0.790284 -0.157137 0.592249
-0.648601 -0.504027 0.570328
0.427493 0.38541 0.817746
0.11176 -0.993721 0.00531837
-0.135536 -0.714294 -0.686596
0.748468 -0.462083 -0.475684
0.240021 -0.386912 0.890331
0.0216678 0.37148 -0.928188
-0.302541 -0.0116413 -0.953065
-0.986393 0.13653 -0.0915925
-0.499377 0.829677 -0.249516
0.759853 -0.0796773 0.645194
-0.874817 -0.437018 -0.20907
0.270216 0.367368 0.889957
-0.835935 0.272943 -0.476146
0.987593 -0.15698 -0.00424686
0.512451 0.716375 -0.473498
-0.919135 0.193717 0.343023
-0.147874 0.539129 -0.82914
-0.548361 -0.761804 0.344898
-0.232655 0.49926 -0.834632
0.239778 0.676847 0.695978
-0.792755 0.166127 -0.586465
0.536852 -0.394015 0.746017
0.970761 -0.0475506 0.235291
0.531003 -0.78512 -0.318784
0.453992 0.404454 -0.79392
0.213617 -0.796577 -0.565538
0.818917 0.395523 -0.415856
0.685536 -0.401589 -0.607262
-0.774774 -0.58483 -0.240208
-0.519915 -0.348808 -0.779757
0.394334 -0.595851 -0.699616
0.632903 0.700613 -0.329507
0.809367 5.86145e-05 -0.587303
-0.641133 0.231967 -0.731533
-0.907574 -0.377759 -0.183325
ITEM: TIMESTEP
510
ITEM: NUMBER OF ATOMS
54
ITEM: BOX BOUNDS pp pp pp
0.0000000000000000e+00 8.6303750400000006e+00
0.0000000000000000e+00 8.6303750400000006e+00
0.0000000000000000e+00 8.6303750400000006e+00
ITEM: ATOMS c_outsp[1] c_outsp[2] c_outsp[3]
0.958434 -0.238731 -0.156241
-0.116068 0.490634 -0.863601
0.63216 0.503632 -0.588836
-0.0691752 -0.972771 -0.221206
-0.633835 -0.0782005 -0.769505
-0.785246 -0.554627 -0.275279
-0.383747 0.292472 0.875899
-0.0630883 -0.935122 0.348665
-0.691642 0.303113 0.655557
0.888917 -0.212915 -0.405579
0.654962 0.185389 -0.732567
-0.3326 0.0318425 0.94253
-0.26541 0.926531 0.266641
0.872714 0.471444 -0.126932
-0.283977 0.956844 -0.0617022
0.0464923 -0.580889 -0.812654
0.207361 -0.396258 -0.894417
-0.806264 -0.0907118 0.584559
-0.69645 -0.50377 0.511051
0.391519 0.39543 0.830872
0.07056 -0.997504 -0.00263599
-0.135475 -0.73025 -0.669613
0.739069 -0.472112 -0.480508
0.219483 -0.380174 0.898496
0.038596 0.355269 -0.933967
-0.266613 -0.0403767 -0.962958
-0.980018 0.160897 -0.116948
-0.499892 0.83144 -0.242518
0.775954 -0.0861021 0.624886
-0.879288 -0.429958 -0.204913
0.295934 0.371158 0.880151
-0.830992 0.30692 -0.463953
0.983713 -0.174216 -0.0442366
0.47917 0.713544 -0.511127
-0.91126 0.21617 0.350536
-0.15263 0.519051 -0.841005
-0.550581 -0.733622 0.39832
-0.201683 0.519284 -0.830463
0.280976 0.661203 0.695603
-0.771252 0.144508 -0.619909
0.507216 -0.408586 0.758808
0.963718 -0.114498 0.241116
0.502952 -0.805959 -0.312201
0.508846 0.427241 -0.747356
0.206424 -0.790045 -0.57725
0.834918 0.384332 -0.393955
0.695057 -0.422307 -0.581853
-0.780817 -0.573947 -0.246799
-0.553902 -0.319794 -0.768716
0.366895 -0.615634 -0.697412
0.659413 0.691544 -0.294857
0.809505 -0.0147078 -0.586929
-0.632426 0.179509 -0.753535
-0.916636 -0.345679 -0.200712
ITEM: TIMESTEP
515
ITEM: NUMBER OF ATOMS
54
ITEM: BOX BOUNDS pp pp pp
0.0000000000000000e+00 8.6303750400000006e+00
0.0000000000000000e+00 8.6303750400000006e+00
0.0000000000000000e+00 8.6303750400000006e+00
ITEM: ATOMS c_outsp[1] c_outsp[2] c_outsp[3]
0.957918 -0.252059 -0.13733
-0.122159 0.498956 -0.857974
0.636851 0.517851 -0.571184
-0.095503 -0.961788 -0.256599
-0.643961 -0.0754064 -0.761333
-0.80141 -0.542181 -0.252551
-0.365306 0.297368 0.882113
-0.128763 -0.92528 0.356759
-0.674481 0.313365 0.668489
0.876861 -0.22833 -0.423061
0.647602 0.174102 -0.741822
-0.343118 0.0634472 0.937147
-0.195205 0.931996 0.305416
0.886145 0.441204 -0.141722
-0.21492 0.973024 -0.0838605
0.0474555 -0.575024 -0.816759
0.216384 -0.403282 -0.889124
-0.819594 -0.023113 0.572478
-0.740867 -0.499255 0.449289
0.355563 0.406773 0.841493
0.0302497 -0.99948 -0.0111468
-0.137018 -0.745974 -0.651727
0.729498 -0.481562 -0.485727
0.198679 -0.372826 0.906382
0.0538231 0.339967 -0.938896
-0.231702 -0.0716849 -0.970142
-0.972378 0.186172 -0.140785
-0.500069 0.833618 -0.234547
0.791484 -0.0928097 0.604102
-0.883397 -0.422807 -0.202098
0.322588 0.373879 0.86957
-0.825291 0.340336 -0.450628
0.97842 -0.188706 -0.0841635
0.444183 0.710081 -0.546339
-0.903397 0.237876 0.356775
-0.159162 0.499877 -0.851346
-0.551798 -0.702009 0.450224
-0.169775 0.536218 -0.826829
0.32162 0.643667 0.694444
-0.749749 0.119858 -0.650777
0.47559 -0.421814 0.771937
0.953072 -0.180793 0.242833
0.474434 -0.825596 -0.305457
0.563325 0.444438 -0.69652
0.199367 -0.78306 -0.589126
0.850379 0.37272 -0.371397
0.702521 -0.445262 -0.555163
-0.78663 -0.562632 -0.254281
-0.585314 -0.286058 -0.758669
0.339276 -0.632998 -0.695848
0.68509 0.680442 -0.260096
0.809947 -0.0278174 -0.585843
-0.622862 0.125331 -0.772228
-0.924503 -0.313025 -0.217509
ITEM: TIMESTEP
520
ITEM: NUMBER OF ATOMS
54
ITEM: BOX BOUNDS pp pp pp
0.0000000000000000e+00 8.6303750400000006e+00
0.0000000000000000e+00 8.6303750400000006e+00
0.0000000000000000e+00 8.6303750400000006e+00
ITEM: ATOMS c_outsp[1] c_outsp[2] c_outsp[3]
0.95671 -0.265614 -0.118974
-0.127697 0.506977 -0.852448
0.643138 0.531863 -0.550904
-0.121381 -0.949018 -0.290914
-0.654387 -0.0734943 -0.75258
-0.817126 -0.528245 -0.230785
-0.345925 0.303616 0.88778
-0.19257 -0.911282 0.363981
-0.65721 0.321821 0.681547
0.863783 -0.244281 -0.440687
0.639565 0.163166 -0.751221
-0.353266 0.0952639 0.93066
-0.124649 0.931004 0.343065
0.897819 0.411306 -0.157315
-0.145377 0.983573 -0.107003
0.0484226 -0.569826 -0.820337
0.224741 -0.410925 -0.883534
-0.82996 0.0452298 0.555986
-0.781453 -0.490724 0.385385
0.319893 0.419405 0.849569
-0.00907158 -0.999756 -0.0201612
-0.140265 -0.761316 -0.633028
0.719755 -0.490422 -0.491364
0.177729 -0.364826 0.913955
0.0675596 0.325717 -0.94305
-0.198138 -0.105365 -0.974495
-0.963489 0.212321 -0.163124
-0.499903 0.836179 -0.225614
0.806456 -0.0997722 0.582816
-0.887167 -0.415567 -0.200594
0.350083 0.375473 0.858174
-0.818856 0.373118 -0.436186
0.971886 -0.200297 -0.123771
0.407583 0.70626 -0.578855
-0.895623 0.258748 0.361814
-0.167291 0.481736 -0.8602
-0.551941 -0.667086 0.500358
-0.13726 0.55001 -0.823802
0.361597 0.624283 0.692473
-0.728457 0.0923624 -0.678837
0.441996 -0.433544 0.78529
0.939021 -0.245873 0.240387
0.44561 -0.843983 -0.298537
0.616748 0.455921 -0.641684
0.192464 -0.775594 -0.601174
0.86526 0.360703 -0.348165
0.707615 -0.470282 -0.527367
-0.792147 -0.550918 -0.262664
-0.613606 -0.247872 -0.749698
0.311712 -0.647981 -0.694951
0.709818 0.66738 -0.225304
0.810853 -0.0393861 -0.583923
-0.612471 0.069667 -0.787417
-0.931137 -0.27992 -0.233729
ITEM: TIMESTEP
525
ITEM: NUMBER OF ATOMS
54
ITEM: BOX BOUNDS pp pp pp
0.0000000000000000e+00 8.6303750400000006e+00
0.0000000000000000e+00 8.6303750400000006e+00
0.0000000000000000e+00 8.6303750400000006e+00
ITEM: ATOMS c_outsp[1] c_outsp[2] c_outsp[3]
0.954833 -0.279374 -0.10121
-0.132714 0.514714 -0.847028
0.651016 0.545333 -0.528006
-0.14673 -0.934587 -0.324063
-0.665102 -0.0724234 -0.743232
-0.832372 -0.512895 -0.209991
-0.325609 0.311206 0.892821
-0.254264 -0.893433 0.370307
-0.639986 0.328464 0.694644
0.849631 -0.260651 -0.458462
0.630897 0.152571 -0.760717
-0.362958 0.127192 0.923084
-0.0543344 0.923599 0.379489
0.907764 0.381861 -0.17363
-0.07583 0.988467 -0.13108
0.0492838 -0.565304 -0.823409
0.232393 -0.419112 -0.877689
-0.837076 0.113853 0.535109
-0.81785 -0.478453 0.319695
0.284776 0.433279 0.855086
-0.047316 -0.99844 -0.0296296
-0.1453 -0.77612 -0.613617
0.709839 -0.498678 -0.497443
0.156755 -0.356144 0.921189
0.080024 0.312629 -0.946499
-0.166246 -0.141179 -0.975926
-0.953348 0.239315 -0.183999
-0.499392 0.839086 -0.215734
0.820878 -0.10696 0.560998
-0.890615 -0.408239 -0.200362
0.378318 0.375884 0.845924
-0.811708 0.405194 -0.420651
0.964298 -0.20887 -0.162798
0.369492 0.702353 -0.608421
-0.888011 0.278704 0.365734
-0.176831 0.464731 -0.867615
-0.550943 -0.628989 0.548484
-0.104467 0.560641 -0.821443
0.400794 0.603102 0.689661
-0.707588 0.0622348 -0.703879
0.406473 -0.443624 0.798735
0.92182 -0.309186 0.233775
0.416644 -0.861092 -0.291426
0.668435 0.46164 -0.583167
0.185736 -0.767621 -0.6134
0.879521 0.348296 -0.324242
0.71005 -0.497171 -0.498648
-0.797302 -0.538844 -0.27195
-0.638258 -0.20557 -0.741868
0.284424 -0.660638 -0.694738
0.733488 0.652445 -0.190554
0.812358 -0.0495508 -0.58105
-0.60129 0.0127705 -0.798929
-0.936511 -0.246485 -0.249385
ITEM: TIMESTEP
530
ITEM: NUMBER OF ATOMS
54
ITEM: BOX BOUNDS pp pp pp
0.0000000000000000e+00 8.6303750400000006e+00
0.0000000000000000e+00 8.6303750400000006e+00
0.0000000000000000e+00 8.6303750400000006e+00
ITEM: ATOMS c_outsp[1] c_outsp[2] c_outsp[3]
0.952309 -0.293324 -0.0840732
-0.137244 0.522186 -0.841716
0.660448 0.557926 -0.502521
-0.17148 -0.91863 -0.355969
-0.676087 -0.0721523 -0.73328
-0.847126 -0.496197 -0.190172
-0.304364 0.320115 0.897156
-0.313639 -0.872049 0.375714
-0.622968 0.333294 0.707691
0.834356 -0.277316 -0.476389
0.621651 0.142302 -0.77026
-0.372111 0.159126 0.914447
0.0151656 0.909883 0.414588
0.916017 0.352977 -0.190578
-0.00675893 0.987728 -0.156038
0.0499239 -0.561453 -0.826001
0.239314 -0.427769 -0.871632
-0.84069 0.182267 0.509921
-0.849745 -0.462746 0.252585
0.250478 0.448329 0.858057
-0.0844064 -0.995648 -0.0395057
-0.152189 -0.790234 -0.593606
0.699749 -0.506311 -0.503984
0.135882 -0.346756 0.928061
0.09144 0.300784 -0.949299
-0.136344 -0.178855 -0.974383
-0.941939 0.267127 -0.203457
-0.49853 0.842303 -0.204923
0.834758 -0.114342 0.538614
-0.893755 -0.400821 -0.201357
0.40719 0.375058 0.832783
-0.803873 0.436499 -0.40405
0.955855 -0.214347 -0.200989
0.330067 0.698621 -0.63481
-0.88063 0.297673 0.368622
-0.187584 0.448942 -0.873649
-0.548746 -0.587873 0.594376
-0.0717275 0.568127 -0.819809
0.439103 0.580185 0.685984
-0.687348 0.029717 -0.72572
0.369077 -0.45192 0.812127
0.901777 -0.370203 0.223044
0.387699 -0.876911 -0.284105
0.717719 0.461624 -0.521328
0.179203 -0.759117 -0.625802
0.893116 0.335517 -0.29962
0.709566 -0.52571 -0.469196
-0.80203 -0.526446 -0.282138
-0.658787 -0.159543 -0.735218
0.257621 -0.671041 -0.695223
0.756001 0.63573 -0.155916
0.814575 -0.0584668 -0.577105
-0.589361 -0.0450843 -0.806611
-0.940607 -0.212843 -0.264493
ITEM: TIMESTEP
535
ITEM: NUMBER OF ATOMS
54
ITEM: BOX BOUNDS pp pp pp
0.0000000000000000e+00 8.6303750400000006e+00
0.0000000000000000e+00 8.6303750400000006e+00
0.0000000000000000e+00 8.6303750400000006e+00
ITEM: ATOMS c_outsp[1] c_outsp[2] c_outsp[3]
0.949161 -0.307448 -0.0675943
-0.141321 0.52942 -0.836507
0.671367 0.569312 -0.4745
-0.195566 -0.901286 -0.386572
-0.687315 -0.0726398 -0.722718
-0.86137 -0.478214 -0.171324
-0.282192 0.330306 0.900703
-0.370536 -0.847449 0.380176
-0.606316 0.336328 0.7206
0.817911 -0.294151 -0.494466
0.611879 0.13234 -0.779802
-0.380648 0.190955 0.904789
0.083298 0.890011 0.448266
0.922628 0.324753 -0.208067
0.0613601 0.981416 -0.181815
0.0502238 -0.558258 -0.828146
0.24549 -0.436824 -0.865401
-0.840591 0.249958 0.48055
-0.876874 -0.443933 0.18443
0.217259 0.464473 0.858524
-0.120277 -0.991493 -0.0497468
-0.160983 -0.803506 -0.573116
0.689486 -0.513301 -0.51101
0.115236 -0.33665 0.934552
0.102034 0.290236 -0.9515
-0.108734 -0.218089 -0.969853
-0.929226 0.295728 -0.221549
-0.497309 0.845788 -0.193202
0.848102 -0.121887 0.515623
-0.896597 -0.393308 -0.203529
0.436589 0.372946 0.81872
-0.795375 0.466968 -0.386419
0.946762 -0.216689 -0.238089
0.28949 0.695315 -0.657824
-0.873544 0.315592 0.370571
-0.19935 0.434425 -0.878371
-0.545298 -0.543907 0.63782
-0.0393637 0.57252 -0.818945
0.476412 0.555603 0.681423
-0.667938 -0.00492411 -0.744201
0.329885 -0.458307 0.825306
0.879244 -0.428421 0.208293
0.358934 -0.891449 -0.276559
0.763959 0.455973 -0.456568
0.17289 -0.750059 -0.638373
0.905999 0.322382 -0.274291
0.705934 -0.555658 -0.439206
-0.80627 -0.513762 -0.293219
-0.674749 -0.110237 -0.729768
0.231495 -0.679279 -0.696412
0.777266 0.617338 -0.121455
0.817588 -0.0663052 -0.571973
-0.57673 -0.103605 -0.810339
-0.943417 -0.179113 -0.279074
ITEM: TIMESTEP
540
ITEM: NUMBER OF ATOMS
54
ITEM: BOX BOUNDS pp pp pp
0.0000000000000000e+00 8.6303750400000006e+00
0.0000000000000000e+00 8.6303750400000006e+00
0.0000000000000000e+00 8.6303750400000006e+00
ITEM: ATOMS c_outsp[1] c_outsp[2] c_outsp[3]
0.945412 -0.321736 -0.0518006
-0.144975 0.536444 -0.83139
0.683678 0.579166 -0.444017
-0.21893 -0.882699 -0.415826
-0.698752 -0.0738447 -0.711543
-0.875086 -0.459001 -0.153435
-0.259096 0.341727 0.903378
-0.424833 -0.819949 0.383667
-0.590184 0.337604 0.733285
0.800257 -0.311028 -0.51269
0.60164 0.12266 -0.789294
-0.388501 0.222565 0.894166
0.149536 0.864191 0.48043
0.927657 0.29728 -0.226001
0.128061 0.969636 -0.208343
0.0500622 -0.555687 -0.829883
0.250916 -0.446203 -0.859037
-0.836614 0.316404 0.447175
-0.899022 -0.422368 0.115609
0.185369 0.481614 0.856555
-0.154871 -0.986092 -0.0603137
-0.171712 -0.815785 -0.552277
0.679051 -0.519622 -0.518539
0.0949411 -0.325825 0.940651
0.11203 0.28101 -0.953144
-0.0837004 -0.258553 -0.962364
-0.915158 0.325085 -0.23834
-0.495722 0.849497 -0.180592
0.86091 -0.12956 0.491985
-0.899147 -0.385695 -0.206818
0.466402 0.369499 0.803704
-0.786239 0.496543 -0.367795
0.937225 -0.215897 -0.273857
0.247976 0.692665 -0.677291
-0.866811 0.332407 0.371677
-0.211924 0.421211 -0.881856
-0.540555 -0.497273 0.678616
-0.00769042 0.573902 -0.818888
0.512615 0.529433 0.675964
-0.649546 -0.0413989 -0.759195
0.288989 -0.462681 0.8381
0.854613 -0.483382 0.189679
0.330499 -0.904728 -0.26877
0.80655 0.444866 -0.389322
0.166822 -0.74043 -0.651103
0.918119 0.308912 -0.248256
0.698952 -0.586758 -0.408878
-0.809964 -0.500826 -0.305174
-0.685748 -0.0581483 -0.725513
0.206223 -0.685452 -0.698303
0.7972 0.597379 -0.0872323
0.821457 -0.07325 -0.565547
-0.563443 -0.162486 -0.810018
-0.944943 -0.145414 -0.293151
ITEM: TIMESTEP
545
ITEM: NUMBER OF ATOMS
54
ITEM: BOX BOUNDS pp pp pp
0.0000000000000000e+00 8.6303750400000006e+00
0.0000000000000000e+00 8.6303750400000006e+00
0.0000000000000000e+00 8.6303750400000006e+00
ITEM: ATOMS c_outsp[1] c_outsp[2] c_outsp[3]
0.941081 -0.336181 -0.0367161
-0.148239 0.543293 -0.826352
0.697255 0.58718 -0.411163
-0.241523 -0.863016 -0.4437
-0.710355 -0.0757261 -0.699758
-0.888255 -0.438604 -0.13649
-0.235078 0.354313 0.905097
-0.476447 -0.789862 0.386156
-0.574722 0.337174 0.74566
0.781359 -0.327814 -0.531052
0.590994 0.113231 -0.79869
-0.395606 0.25384 0.882645
0.213382 0.832679 0.510994
0.931172 0.270639 -0.244282
0.192892 0.952528 -0.235547
0.0493177 -0.553692 -0.83126
0.2556 -0.455838 -0.852572
-0.828647 0.38108 0.410028
-0.916024 -0.39842 0.0465003
0.155046 0.499643 0.852243
-0.188143 -0.97956 -0.0711704
-0.18439 -0.826924 -0.531222
0.66845 -0.525242 -0.526588
0.0751219 -0.314292 0.94635
0.121653 0.273106 -0.954261
-0.0614987 -0.299896 -0.951987
-0.899665 0.355161 -0.253898
-0.493762 0.853387 -0.167122
0.87318 -0.137326 0.467653
-0.901412 -0.377976 -0.211163
0.496511 0.364675 0.787711
-0.77649 0.525168 -0.348226
0.927443 -0.212011 -0.308059
0.205762 0.690885 -0.693066
-0.860484 0.348072 0.37204
-0.225106 0.409311 -0.88419
-0.534476 -0.448166 0.716578
0.0229908 0.572386 -0.819662
0.547608 0.501764 0.669595
-0.632347 -0.079399 -0.770606
0.246497 -0.464958 0.850325
0.828311 -0.534673 0.167407
0.302537 -0.916786 -0.260719
0.844932 0.428549 -0.320055
0.161023 -0.730212 -0.663975
0.929424 0.295126 -0.22152
0.688454 -0.618737 -0.378412
-0.813059 -0.487672 -0.317981
-0.69144 -0.00381496 -0.722424
0.181963 -0.689669 -0.70089
0.815733 0.575968 -0.0533031
0.826212 -0.0794959 -0.557722
-0.549551 -0.221408 -0.805588
-0.945195 -0.111857 -0.306748
ITEM: TIMESTEP
550
ITEM: NUMBER OF ATOMS
54
ITEM: BOX BOUNDS pp pp pp
0.0000000000000000e+00 8.6303750400000006e+00
0.0000000000000000e+00 8.6303750400000006e+00
0.0000000000000000e+00 8.6303750400000006e+00
ITEM: ATOMS c_outsp[1] c_outsp[2] c_outsp[3]
0.936191 -0.35078 -0.0223609
-0.151143 0.550006 -0.82137
0.711946 0.593059 -0.376051
-0.263301 -0.842382 -0.470176
-0.72208 -0.0782437 -0.68737
-0.900856 -0.41707 -0.120466
-0.210142 0.367982 0.905776
-0.525329 -0.757488 0.38761
-0.560073 0.335109 0.757641
0.761189 -0.344376 -0.549542
0.580004 0.10402 -0.807945
-0.40191 0.284666 0.870307
0.274374 0.795772 0.539876
0.93325 0.2449 -0.262808
0.255419 0.930275 -0.263341
0.0478711 -0.552209 -0.83233
0.259558 -0.465664 -0.846042
-0.816631 0.443467 0.369393
-0.927769 -0.372475 -0.0225166
0.126511 0.518437 0.845706
-0.220057 -0.97201 -0.0822847
-0.199011 -0.836782 -0.510089
0.657691 -0.530127 -0.53517
0.0558988 -0.302072 0.951645
0.131119 0.266502 -0.954874
-0.0423546 -0.341755 -0.938834
-0.882662 0.385905 -0.268299
-0.491419 0.857411 -0.152821
0.884904 -0.145147 0.442579
-0.903394 -0.370146 -0.216497
0.526796 0.358433 0.770722
-0.766153 0.552794 -0.327763
0.917608 -0.205105 -0.34048
0.163111 0.69016 -0.705034
-0.854605 0.362548 0.371765
-0.238695 0.398717 -0.885466
-0.527027 -0.396791 0.751532
0.0523951 0.568115 -0.82128
0.581292 0.472692 0.662315
-0.616499 -0.118601 -0.778372
0.202538 -0.465074 0.861792
0.800785 -0.58194 0.141736
0.275181 -0.927672 -0.252389
0.878607 0.407335 -0.249253
0.155522 -0.719394 -0.676968
0.939862 0.281047 -0.194094
0.674304 -0.65131 -0.348008
-0.815505 -0.474328 -0.331609
-0.691541 0.052187 -0.720449
0.158856 -0.692047 -0.704156
0.8328 0.553223 -0.0197187
0.831856 -0.0852444 -0.548407
-0.5351 -0.280048 -0.79702
-0.944192 -0.0785488 -0.319894
ITEM: TIMESTEP
555
ITEM: NUMBER OF ATOMS
54
ITEM: BOX BOUNDS pp pp pp
0.0000000000000000e+00 8.6303750400000006e+00
0.0000000000000000e+00 8.6303750400000006e+00
0.0000000000000000e+00 8.6303750400000006e+00
ITEM: ATOMS c_outsp[1] c_outsp[2] c_outsp[3]
0.930757 -0.365533 -0.00875114
-0.153712 0.556625 -0.81642
0.727573 0.596527 -0.338811
-0.284227 -0.820939 -0.495251
-0.733877 -0.0813574 -0.674393
-0.912866 -0.394436 -0.105336
-0.184295 0.382641 0.90533
-0.571461 -0.723114 0.387992
-0.546369 0.331498 0.769149
0.739727 -0.360578 -0.568144
0.568734 0.0949858 -0.817019
-0.407368 0.314928 0.857247
0.332083 0.753807 0.567006
0.933979 0.220121 -0.281479
0.315231 0.903094 -0.291635
0.0456081 -0.551158 -0.833153
0.262816 -0.475619 -0.839473
-0.800566 0.503069 0.325601
-0.9342 -0.344929 -0.0910693
0.0999668 0.537864 0.837083
-0.250585 -0.963557 -0.0936271
-0.215551 -0.84522 -0.48902
0.646787 -0.534239 -0.544293
0.0373884 -0.2892 0.956538
0.140638 0.26115 -0.954998
-0.0264588 -0.383756 -0.923055
-0.864051 0.417257 -0.281624
-0.488683 0.861523 -0.137722
0.896071 -0.152985 0.416717
-0.905095 -0.362198 -0.222746
0.55713 0.350739 0.752721
-0.755252 0.579374 -0.306464
0.907898 -0.195292 -0.370921
0.120306 0.690654 -0.713108
-0.849213 0.375806 0.370954
-0.252499 0.389399 -0.885784
-0.518181 -0.343365 0.783319
0.0802569 0.561255 -0.823743
0.613575 0.442322 0.654124
-0.602139 -0.158672 -0.782466
0.15725 -0.462992 0.872302
0.772497 -0.624889 0.112969
0.248548 -0.937446 -0.243761
0.907142 0.381597 -0.17742
0.150347 -0.707966 -0.690058
0.949377 0.266699 -0.165995
0.6564 -0.68418 -0.317863
-0.81726 -0.460819 -0.346023
-0.685827 0.109251 -0.719518
0.137026 -0.692708 -0.708082
0.848349 0.529266 0.013475
0.838363 -0.0907014 -0.537514
-0.520137 -0.338078 -0.784322
-0.941958 -0.045591 -0.332621
ITEM: TIMESTEP
560
ITEM: NUMBER OF ATOMS
54
ITEM: BOX BOUNDS pp pp pp
0.0000000000000000e+00 8.6303750400000006e+00
0.0000000000000000e+00 8.6303750400000006e+00
0.0000000000000000e+00 8.6303750400000006e+00
ITEM: ATOMS c_outsp[1] c_outsp[2] c_outsp[3]
0.924796 -0.38044 0.00410089
-0.155973 0.563196 -0.81147
0.743933 0.597333 -0.299595
-0.30427 -0.798828 -0.518936
-0.745691 -0.085027 -0.660844
-0.924261 -0.370739 -0.0910692
-0.157547 0.398178 0.903678
-0.61485 -0.687013 0.387263
-0.533732 0.326441 0.780107
0.716959 -0.376281 -0.586841
0.55725 0.0860851 -0.825871
-0.411946 0.344515 0.843569
0.386121 0.707155 0.592319
0.933451 0.196349 -0.300194
0.371941 0.871235 -0.320328
0.0424214 -0.55044 -0.833796
0.265405 -0.485647 -0.832891
-0.780509 0.559417 0.279029
-0.935315 -0.316182 -0.158794
0.0755955 0.557785 0.826536
-0.279707 -0.954308 -0.105171
-0.233968 -0.852109 -0.468155
0.635755 -0.537534 -0.553961
0.0197018 -0.275725 0.961035
0.150413 0.25698 -0.95464
-0.013963 -0.425523 -0.90484
-0.843722 0.449137 -0.293955
-0.485545 0.865677 -0.121862
0.90666 -0.1608 0.390015
-0.906515 -0.354127 -0.229837
0.587385 0.341563 0.733698
-0.743813 0.604867 -0.28439
0.898473 -0.182712 -0.399203
0.0776491 0.692499 -0.717228
-0.844336 0.387823 0.369716
-0.266331 0.381313 -0.88525
-0.507918 -0.288117 0.811793
0.106333 0.551998 -0.827037
0.644367 0.410764 0.64503
-0.589381 -0.199272 -0.782893
0.110788 -0.458699 0.881658
0.743912 -0.663295 0.0814517
0.222742 -0.946174 -0.234819
0.930176 0.351758 -0.105067
0.145528 -0.695925 -0.703214
0.957916 0.25211 -0.137248
0.634675 -0.717039 -0.28817
-0.818288 -0.447163 -0.361179
-0.674139 0.166747 -0.719536
0.116579 -0.691777 -0.712638
0.862337 0.50422 0.0462367
0.84568 -0.0960736 -0.524971
-0.504705 -0.39517 -0.767537
-0.938526 -0.0130765 -0.344961
ITEM: TIMESTEP
565
ITEM: NUMBER OF ATOMS
54
ITEM: BOX BOUNDS pp pp pp
0.0000000000000000e+00 8.6303750400000006e+00
0.0000000000000000e+00 8.6303750400000006e+00
0.0000000000000000e+00 8.6303750400000006e+00
ITEM: ATOMS c_outsp[1] c_outsp[2] c_outsp[3]
0.918378 -0.395354 0.0166234
-0.158186 0.570158 -0.806162
0.760402 0.595659 -0.258804
-0.322989 -0.775969 -0.541803
-0.757689 -0.0893103 -0.646476
-0.934885 -0.34631 -0.0778437
-0.129395 0.414963 0.90059
-0.655061 -0.649501 0.386062
-0.522299 0.31964 0.790591
0.693205 -0.391455 -0.605169
0.545437 0.0771486 -0.834594
-0.415919 0.372791 0.829481
0.436391 0.656469 0.615314
0.931706 0.17347 -0.319112
0.425185 0.834842 -0.349652
0.0386615 -0.550324 -0.834056
0.26695 -0.495085 -0.826818
-0.756815 0.61175 0.230203
-0.931182 -0.287098 -0.224667
0.0537103 0.57794 0.81431
-0.307069 -0.944453 -0.11712
-0.254194 -0.857547 -0.447212
0.624366 -0.539847 -0.564564
0.00320054 -0.261381 0.96523
0.16052 0.253622 -0.953892
-0.00485472 -0.467096 -0.884193
-0.82161 0.481317 -0.305434
-0.481995 0.869895 -0.104709
0.916384 -0.169176 0.362795
-0.90751 -0.346164 -0.237898
0.617841 0.331225 0.713136
-0.732124 0.629087 -0.261235
0.889488 -0.16708 -0.425317
0.0361269 0.696211 -0.716928
-0.84025 0.398006 0.368201
-0.280291 0.374025 -0.884049
-0.496702 -0.23176 0.836406
0.130466 0.540177 -0.831377
0.673712 0.378418 0.634753
-0.578516 -0.240382 -0.779445
0.0633802 -0.452472 0.889524
0.715457 -0.697094 0.0467061
0.19719 -0.954138 -0.225248
0.947305 0.318655 -0.0327259
0.141005 -0.683121 -0.716563
0.965118 0.238571 -0.107849
0.609094 -0.74972 -0.258698
-0.818668 -0.432668 -0.377598
-0.656481 0.225167 -0.719953
0.0977197 -0.689713 -0.717459
0.874605 0.478488 0.0782044
0.853795 -0.101314 -0.510656
-0.488121 -0.45099 -0.747226
-0.934 0.0187569 -0.356781
ITEM: TIMESTEP
570
ITEM: NUMBER OF ATOMS
54
ITEM: BOX BOUNDS pp pp pp
0.0000000000000000e+00 8.6303750400000006e+00
0.0000000000000000e+00 8.6303750400000006e+00
0.0000000000000000e+00 8.6303750400000006e+00
ITEM: ATOMS c_outsp[1] c_outsp[2] c_outsp[3]
0.911731 -0.409682 0.03012
-0.161005 0.578627 -0.799542
0.775642 0.59258 -0.217322
-0.33914 -0.751778 -0.56552
-0.770405 -0.0945231 -0.630509
-0.944388 -0.322065 -0.0663763
-0.0982539 0.434211 0.895437
-0.690752 -0.611189 0.386406
-0.512185 0.310033 0.800966
0.669431 -0.406372 -0.621872
0.532845 0.0677641 -0.843495
-0.420219 0.398055 0.815456
0.483572 0.602883 0.634579
0.928623 0.151043 -0.338889
0.474555 0.793775 -0.38042
0.0354071 -0.551942 -0.83313
0.266494 -0.501999 -0.822786
-0.73046 0.658849 0.17985
-0.922239 -0.259652 -0.286454
0.0347751 0.597771 0.800913
-0.331681 -0.934398 -0.129957
-0.276132 -0.862036 -0.425024
0.611807 -0.540758 -0.577298
-0.0112754 -0.245347 0.96937
0.170817 0.250101 -0.953033
0.00101596 -0.509254 -0.860616
-0.797791 0.51326 -0.316376
-0.477998 0.874267 -0.0847101
0.92448 -0.179841 0.336145
-0.907638 -0.338968 -0.247575
0.649604 0.320569 0.689384
-0.721042 0.651491 -0.23592
0.88103 -0.147238 -0.449563
-0.00184506 0.703184 -0.711005
-0.837728 0.40468 0.36667
-0.294998 0.366421 -0.882447
-0.486251 -0.175981 0.855915
0.152492 0.524896 -0.837395
0.701908 0.346223 0.622458
-0.570248 -0.282496 -0.771371
0.0152276 -0.445159 0.895322
0.687499 -0.726155 0.00653963
0.170024 -0.961909 -0.214062
0.95809 0.283817 0.0388717
0.136613 -0.66905 -0.730554
0.970092 0.229921 -0.0778329
0.579629 -0.782234 -0.228341
-0.818591 -0.415175 -0.396911
-0.632678 0.287193 -0.719193
0.0806539 -0.687656 -0.721543
0.884881 0.453026 0.108414
0.862815 -0.105988 -0.494284
-0.468175 -0.505217 -0.724961
-0.928641 0.0493524 -0.367681
ITEM: TIMESTEP
575
ITEM: NUMBER OF ATOMS
54
ITEM: BOX BOUNDS pp pp pp
0.0000000000000000e+00 8.6303750400000006e+00
0.0000000000000000e+00 8.6303750400000006e+00
0.0000000000000000e+00 8.6303750400000006e+00
ITEM: ATOMS c_outsp[1] c_outsp[2] c_outsp[3]
0.904672 -0.42395 0.0428449
-0.163411 0.587031 -0.792901
0.791081 0.586324 -0.1744
-0.354378 -0.727178 -0.587902
-0.782852 -0.100276 -0.614074
-0.953297 -0.296826 -0.0558553
-0.0662032 0.453712 0.888686
-0.723891 -0.572165 0.385498
-0.503287 0.29946 0.810571
0.64434 -0.420523 -0.638739
0.52027 0.0583749 -0.852004
-0.423665 0.422355 0.801326
0.526527 0.545739 0.651873
0.924522 0.12965 -0.358399
0.51975 0.748919 -0.411071
0.0306657 -0.553682 -0.832163
0.265894 -0.508787 -0.818802
-0.700737 0.701855 0.127937
-0.908731 -0.232513 -0.346621
0.0181745 0.61755 0.786322
-0.354961 -0.923934 -0.142647
-0.299705 -0.864549 -0.4034
0.59906 -0.540663 -0.590601
-0.0246835 -0.229051 0.973101
0.181924 0.247418 -0.951676
0.00304208 -0.549924 -0.835209
-0.771943 0.545327 -0.326683
-0.473521 0.878433 -0.0642817
0.932 -0.190172 0.308563
-0.907472 -0.331551 -0.25801
0.680874 0.308112 0.664438
-0.709559 0.672624 -0.210007
0.873069 -0.125229 -0.471241
-0.0385709 0.711834 -0.701288
-0.835738 0.410214 0.365056
-0.309174 0.359987 -0.880239
-0.474817 -0.119092 0.87199
0.171898 0.507949 -0.844061
0.7284 0.313176 0.609388
-0.563838 -0.323912 -0.759716
-0.0338286 -0.435787 0.899414
0.660623 -0.749895 -0.0351419
0.143994 -0.968665 -0.202371
0.963035 0.246248 0.109205
0.132782 -0.654284 -0.7445
0.974081 0.22117 -0.0474394
0.546333 -0.813606 -0.198909
-0.817514 -0.397456 -0.416773
-0.602165 0.347495 -0.71878
0.06485 -0.684407 -0.726211
0.893716 0.426826 0.138173
0.872346 -0.111378 -0.476033
-0.447755 -0.557641 -0.698964
-0.922233 0.0792424 -0.378426
ITEM: TIMESTEP
580
ITEM: NUMBER OF ATOMS
54
ITEM: BOX BOUNDS pp pp pp
0.0000000000000000e+00 8.6303750400000006e+00
0.0000000000000000e+00 8.6303750400000006e+00
0.0000000000000000e+00 8.6303750400000006e+00
ITEM: ATOMS c_outsp[1] c_outsp[2] c_outsp[3]
0.89722 -0.43817 0.0548035
-0.165407 0.595432 -0.786194
0.806469 0.576752 -0.130247
-0.368677 -0.702285 -0.608993
-0.794972 -0.106529 -0.597219
-0.961576 -0.270618 -0.0462346
-0.0333024 0.473304 0.880269
-0.754593 -0.532623 0.383279
-0.495653 0.288052 0.819362
0.617945 -0.433767 -0.655737
0.507779 0.0489358 -0.860096
-0.426246 0.445631 0.787228
0.564986 0.485437 0.667189
0.919517 0.109289 -0.377551
0.560518 0.700663 -0.441465
0.0243637 -0.555369 -0.831247
0.26519 -0.515442 -0.814858
-0.66786 0.740506 0.0749306
-0.890847 -0.206019 -0.404904
0.00397678 0.63715 0.77073
-0.376936 -0.913148 -0.155181
-0.324788 -0.865 -0.382477
0.586179 -0.539489 -0.604438
-0.0369423 -0.212577 0.976446
0.193969 0.245434 -0.94981
0.00126198 -0.588768 -0.808301
-0.743951 0.577357 -0.336446
-0.468557 0.882363 -0.0434732
0.938906 -0.200135 0.280003
-0.907003 -0.323929 -0.269101
0.711486 0.293848 0.638311
-0.697697 0.692472 -0.183581
0.86566 -0.101288 -0.49028
-0.0737151 0.722134 -0.687814