ITEM: TIMESTEP
7500
ITEM: NUMBER OF ATOMS
54
ITEM: BOX BOUNDS pp pp pp
0.0000000000000000e+00 8.6303750400000006e+00
0.0000000000000000e+00 8.6303750400000006e+00
0.0000000000000000e+00 8.6303750400000006e+00
ITEM: ATOMS c_outsp[1] c_outsp[2] c_outsp[3]
0.057644 -0.282599 -0.957504
0.14594 0.766121 0.625907
-0.696189 0.277419 0.662088
-0.953208 0.249689 -0.170439
0.450909 -0.660195 0.600686
0.0589643 -0.552851 -0.831191
0.202993 0.592167 -0.779828
-0.0430654 -0.734312 0.677444
-0.346688 -0.81279 -0.468168
0.849748 0.132898 0.510163
-0.746139 -0.647768 -0.153862
-0.0782982 -0.903143 0.422141
0.203127 0.103135 0.973706
-0.180676 0.436104 -0.881572
-0.928502 0.0315263 -0.369987
0.920141 -0.278622 0.275155
0.136596 -0.508052 -0.850426
-0.307491 0.84562 0.436321
0.83635 0.351734 -0.420477
0.278902 -0.543963 -0.791403
0.772925 0.621406 0.128225
-0.0778114 -0.305821 -0.948904
0.612093 0.222272 -0.758905
-0.0519607 -0.430629 -0.901032
0.917125 -0.346919 0.19629
-0.692846 -0.561414 -0.452525
-0.316441 0.591883 0.74131
0.107229 -0.698048 -0.707976
-0.474402 0.65076 -0.592835
0.788439 0.446383 0.423209
-0.949788 0.299426 0.0908074
-0.239716 0.191174 0.951834
0.836374 -0.263091 0.480898
0.0210711 -0.974777 0.222183
-0.559074 0.749344 0.354852
0.30293 0.0051705 -0.952999
-0.443319 0.108983 -0.889714
0.555291 0.665947 -0.498163
0.616608 -0.142161 -0.774329
0.881344 0.244117 0.404525
0.670377 0.711393 0.210983
0.252123 -0.143615 -0.956979
-0.136475 -0.96852 -0.208189
-0.87806 0.292038 -0.379111
-0.778852 0.000721736 -0.627207
-0.296201 -0.933105 0.203913
0.0351463 -0.954662 -0.295609
0.268522 0.139768 -0.95308
-0.707467 0.181122 0.683144
0.83538 0.544025 -0.0785952
0.647963 -0.761406 -0.020112
-0.685086 0.637655 -0.352212
-0.673788 -0.0982084 -0.732369
-0.620666 0.436597 -0.651273
ITEM: TIMESTEP
7505
ITEM: NUMBER OF ATOMS
54
ITEM: BOX BOUNDS pp pp pp
0.0000000000000000e+00 8.6303750400000006e+00
0.0000000000000000e+00 8.6303750400000006e+00
0.0000000000000000e+00 8.6303750400000006e+00
ITEM: ATOMS c_outsp[1] c_outsp[2] c_outsp[3]
0.0939248 -0.28582 -0.953669
0.143513 0.770034 0.621653
-0.692114 0.314385 0.649723
-0.942787 0.276613 -0.186114
0.414462 -0.693896 0.588837
0.0234781 -0.559927 -0.828209
0.193606 0.617766 -0.762156
-0.0935618 -0.7295 0.677552
-0.348165 -0.828899 -0.437844
0.831823 0.135662 0.538207
-0.762388 -0.616891 -0.195473
-0.108475 -0.912273 0.394957
0.210847 0.152161 0.965604
-0.144946 0.455729 -0.878238
-0.929371 0.0518222 -0.365491
0.918701 -0.293591 0.264185
0.142748 -0.49276 -0.858377
-0.234666 0.872439 0.428698
0.864178 0.305189 -0.400071
0.236131 -0.577168 -0.781741
0.769439 0.625255 0.130456
-0.0674222 -0.309965 -0.948354
0.628077 0.175533 -0.758095
-0.0461273 -0.487352 -0.871987
0.891353 -0.397981 0.217026
-0.672013 -0.565732 -0.477856
-0.286708 0.616709 0.733122
0.0984037 -0.680836 -0.725795
-0.45793 0.648947 -0.607592
0.794851 0.455268 0.401176
-0.925368 0.371731 0.0742308
-0.208344 0.146275 0.967056
0.810942 -0.292576 0.506728
0.0467118 -0.969879 0.239066
-0.578265 0.723764 0.37653
0.34145 0.0277021 -0.939492
-0.431634 0.137242 -0.891548
0.536241 0.644992 -0.544455
0.578998 -0.15067 -0.801286
0.891707 0.179954 0.415302
0.676849 0.699503 0.229283
0.251039 -0.151718 -0.956013
-0.168397 -0.968706 -0.182349
-0.865663 0.321527 -0.38373
-0.801402 0.01953 -0.597808
-0.342801 -0.919634 0.191732
0.0146385 -0.954603 -0.29752
0.295123 0.115392 -0.948466
-0.718118 0.212664 0.662631
0.856565 0.515413 -0.0254255
0.595899 -0.802823 -0.0194654
-0.651689 0.655972 -0.380791
-0.663659 -0.0325562 -0.747326
-0.609642 0.450509 -0.652211
ITEM: TIMESTEP
7510
ITEM: NUMBER OF ATOMS
54
ITEM: BOX BOUNDS pp pp pp
0.0000000000000000e+00 8.6303750400000006e+00
0.0000000000000000e+00 8.6303750400000006e+00
0.0000000000000000e+00 8.6303750400000006e+00
ITEM: ATOMS c_outsp[1] c_outsp[2] c_outsp[3]
0.129954 -0.292324 -0.947449
0.141685 0.774082 0.617027
-0.68718 0.35017 0.636526
-0.931349 0.302557 -0.202605
0.377211 -0.726194 0.574765
-0.0127898 -0.564164 -0.825564
0.185367 0.642347 -0.743659
-0.143738 -0.722121 0.676669
-0.348654 -0.84424 -0.407062
0.812944 0.138484 0.565637
-0.77665 -0.5842 -0.235638
-0.138106 -0.9198 0.367281
0.218666 0.201502 0.954768
-0.106466 0.474565 -0.873758
-0.92963 0.0715861 -0.361473
0.917033 -0.308353 0.252921
0.149355 -0.477433 -0.865882
-0.159692 0.892066 0.422749
0.889009 0.256704 -0.379165
0.190637 -0.605269 -0.772857
0.765755 0.629296 0.132685
-0.0577774 -0.314189 -0.947601
0.641385 0.128185 -0.756435
-0.0423866 -0.54162 -0.839554
0.862188 -0.448209 0.236094
-0.650233 -0.568971 -0.503457
-0.256724 0.640359 0.723901
0.0914961 -0.663933 -0.742174
-0.441361 0.646095 -0.622705
0.802063 0.463484 0.376666
-0.895079 0.442176 0.057558
-0.177701 0.100491 0.97894
0.783352 -0.320403 0.532637
0.0726986 -0.96399 0.255809
-0.597118 0.696425 0.398049
0.379581 0.0476036 -0.923933
-0.420228 0.165197 -0.892255
0.514956 0.623161 -0.588634
0.540673 -0.156219 -0.826601
0.898146 0.11504 0.424381
0.683094 0.687192 0.247285
0.249393 -0.158739 -0.955304
-0.199837 -0.967055 -0.157702
-0.852174 0.349738 -0.389208
-0.82284 0.0412543 -0.566773
-0.387812 -0.904035 0.179785
-0.00554098 -0.953801 -0.300388
0.320132 0.089106 -0.943173
-0.727377 0.242283 0.642045
0.874299 0.484585 0.027909
0.541561 -0.840424 -0.020006
-0.617299 0.671631 -0.4097
-0.648505 0.0326129 -0.760511
-0.598342 0.465632 -0.652054
ITEM: TIMESTEP
7515
ITEM: NUMBER OF ATOMS
54
ITEM: BOX BOUNDS pp pp pp
0.0000000000000000e+00 8.6303750400000006e+00
0.0000000000000000e+00 8.6303750400000006e+00
0.0000000000000000e+00 8.6303750400000006e+00
ITEM: ATOMS c_outsp[1] c_outsp[2] c_outsp[3]
0.165337 -0.302093 -0.938831
0.14049 0.778221 0.612074
-0.681451 0.384728 0.622583
-0.918912 0.327484 -0.2199
0.339286 -0.756963 0.558474
-0.0495758 -0.565481 -0.82327
0.178263 0.665886 -0.724443
-0.193444 -0.712134 0.674867
-0.348158 -0.858769 -0.375901
0.793153 0.141422 0.592375
-0.788946 -0.549857 -0.274265
-0.167041 -0.925775 0.339172
0.226482 0.25095 0.941132
-0.0652953 0.492374 -0.867931
-0.929325 0.0908119 -0.357921
0.915147 -0.322899 0.241334
0.156424 -0.462113 -0.872917
-0.0832758 0.904333 0.418624
0.910691 0.206492 -0.357775
0.142928 -0.628046 -0.764938
0.76194 0.633438 0.134924
-0.0488407 -0.318472 -0.946673
0.652028 0.0804161 -0.753918
-0.0407007 -0.593183 -0.804038
0.829699 -0.497416 0.25333
-0.627484 -0.571147 -0.529202
-0.226523 0.662776 0.713734
0.086372 -0.6476 -0.757069
-0.424711 0.642171 -0.638152
0.809945 0.470864 0.349681
-0.859082 0.510211 0.0407855
-0.14791 0.0540709 0.987522
0.753655 -0.346487 0.558526
0.0988756 -0.957089 0.272405
-0.615456 0.667355 0.419347
0.41721 0.064838 -0.906494
-0.409073 0.192894 -0.891881
0.491562 0.60061 -0.630582
0.501919 -0.158865 -0.850199
0.900693 0.0496543 0.431609
0.689055 0.674528 0.264982
0.247311 -0.164602 -0.954853
-0.230724 -0.963708 -0.13429
-0.837675 0.376623 -0.395544
-0.842788 0.0660056 -0.534182
-0.431123 -0.88649 0.168133
-0.0254028 -0.95227 -0.304198
0.343363 0.0610792 -0.937214
-0.7353 0.270035 0.621623
0.888394 0.451835 0.08125
0.485303 -0.874077 -0.0216818
-0.582103 0.684518 -0.438852
-0.628499 0.0968914 -0.771752
-0.586663 0.481946 -0.650811
ITEM: TIMESTEP
7520
ITEM: NUMBER OF ATOMS
54
ITEM: BOX BOUNDS pp pp pp
0.0000000000000000e+00 8.6303750400000006e+00
0.0000000000000000e+00 8.6303750400000006e+00
0.0000000000000000e+00 8.6303750400000006e+00
ITEM: ATOMS c_outsp[1] c_outsp[2] c_outsp[3]
0.199671 -0.315078 -0.927824
0.139965 0.782406 0.606836
-0.674987 0.418026 0.607986
-0.90549 0.351358 -0.237982
0.30083 -0.786082 0.539978
-0.0866099 -0.563817 -0.821346
0.172276 0.688367 -0.704607
-0.242532 -0.699503 0.672216
-0.346687 -0.872448 -0.344445
0.7725 0.144522 0.61835
-0.799301 -0.514027 -0.311278
-0.195139 -0.930263 0.310696
0.234192 0.30029 0.924651
-0.0215302 0.508916 -0.860547
-0.928498 0.109503 -0.354824
0.913052 -0.337218 0.229392
0.163961 -0.44685 -0.879456
-0.00615432 0.909142 0.416441
0.929088 0.154783 -0.335913
0.0935344 -0.645333 -0.758153
0.758059 0.637595 0.137182
-0.0405714 -0.322799 -0.945598
0.660027 0.0324088 -0.750542
-0.0410132 -0.641825 -0.765754
0.793974 -0.545406 0.268584
-0.603747 -0.572287 -0.554956
-0.196139 0.683906 0.70271
0.0828727 -0.632083 -0.770457
-0.407994 0.637139 -0.653907
0.818346 0.477244 0.320232
-0.817588 0.575307 0.0239077
-0.119074 0.0072601 0.992859
0.721912 -0.370732 0.584296
0.125089 -0.949166 0.288853
-0.633099 0.636603 0.440367
0.454231 0.0793827 -0.88734
-0.39812 0.220375 -0.890469
0.466183 0.577506 -0.670195
0.463014 -0.158695 -0.872029
0.899398 -0.0159275 0.43684
0.694682 0.661576 0.282373
0.244924 -0.169242 -0.954657
-0.260996 -0.958804 -0.112144
-0.822252 0.402135 -0.402727
-0.860843 0.0938618 -0.50014
-0.472645 -0.867185 0.156832
-0.0449533 -0.950022 -0.308929
0.364652 0.0314986 -0.930611
-0.741946 0.295994 0.601584
0.898691 0.417468 0.13444
0.427485 -0.903692 -0.024433
-0.546301 0.694541 -0.468154
-0.603856 0.159886 -0.780893
-0.574501 0.499411 -0.648488
ITEM: TIMESTEP
7525
ITEM: NUMBER OF ATOMS
54
ITEM: BOX BOUNDS pp pp pp
0.0000000000000000e+00 8.6303750400000006e+00
0.0000000000000000e+00 8.6303750400000006e+00
0.0000000000000000e+00 8.6303750400000006e+00
ITEM: ATOMS c_outsp[1] c_outsp[2] c_outsp[3]
0.232556 -0.331187 -0.914458
0.140143 0.786599 0.60135
-0.667844 0.450042 0.592829
-0.891098 0.374139 -0.256837
0.262006 -0.813434 0.519305
-0.123619 -0.559138 -0.819807
0.167389 0.709783 -0.684244
-0.290851 -0.684202 0.668785
-0.344255 -0.885243 -0.312782
0.751037 0.147823 0.643499
-0.807745 -0.47687 -0.346616
-0.22227 -0.933337 0.28192
0.241696 0.3493 0.905303
0.0246969 0.523952 -0.85139
-0.927188 0.127669 -0.352169
0.910755 -0.351298 0.217059
0.171973 -0.431702 -0.885471
0.0709221 0.906465 0.416282
0.944082 0.101819 -0.313595
0.0430031 -0.657023 -0.752643
0.75418 0.641686 0.139466
-0.0329258 -0.327163 -0.944394
0.665419 -0.0156571 -0.746306
-0.0432501 -0.687364 -0.725024
0.75512 -0.591972 0.281715
-0.579005 -0.572432 -0.580582
-0.165604 0.703706 0.690922
0.0808179 -0.617605 -0.782325
-0.391229 0.630969 -0.669939
0.827097 0.482464 0.28834
-0.770866 0.63696 0.00691884
-0.0912791 -0.039703 0.995034
0.688188 -0.39304 0.609849
0.151187 -0.940224 0.305158
-0.649872 0.604231 0.461055
0.490543 0.0912275 -0.866628
-0.387302 0.247679 -0.888061
0.438939 0.55403 -0.707378
0.424213 -0.15582 -0.892056
0.894331 -0.0814332 0.439933
0.699931 0.648393 0.299473
0.242371 -0.172611 -0.954705
-0.290602 -0.95248 -0.0912819
-0.80599 0.426232 -0.410739
-0.876579 0.124862 -0.464778
-0.512308 -0.846313 0.145924
-0.0641941 -0.947067 -0.314554
0.383856 0.000565736 -0.923393
-0.747379 0.320247 0.582123
0.905063 0.381802 0.187321
0.368468 -0.929213 -0.0281932
-0.510108 0.701622 -0.497511
-0.574828 0.221223 -0.787803
-0.561749 0.517969 -0.645094
ITEM: TIMESTEP
7530
ITEM: NUMBER OF ATOMS
54
ITEM: BOX BOUNDS pp pp pp
0.0000000000000000e+00 8.6303750400000006e+00
0.0000000000000000e+00 8.6303750400000006e+00
0.0000000000000000e+00 8.6303750400000006e+00
ITEM: ATOMS c_outsp[1] c_outsp[2] c_outsp[3]
0.263595 -0.350296 -0.898783
0.141057 0.790762 0.59565
-0.660073 0.480766 0.577207
-0.875748 0.395783 -0.276446
0.22299 -0.838912 0.496491
-0.160328 -0.551428 -0.818671
0.163582 0.730132 -0.663437
-0.338249 -0.666215 0.664639
-0.340888 -0.897125 -0.281002
0.728822 0.151353 0.667765
-0.81431 -0.438543 -0.380237
-0.248318 -0.935079 0.252912
0.248897 0.39775 0.883088
0.0732148 0.537246 -0.840242
-0.925427 0.14533 -0.349948
0.908265 -0.365124 0.204299
0.180467 -0.416734 -0.890935
0.147196 0.896353 0.418192
0.955576 0.0478511 -0.290834
-0.00811307 -0.66306 -0.748522
0.750369 0.645634 0.141785
-0.0258585 -0.331568 -0.943077
0.668252 -0.0636076 -0.74121
-0.047321 -0.729654 -0.682177
0.713264 -0.636899 0.292599
-0.553248 -0.571632 -0.605932
-0.134955 0.722136 0.678459
0.0800087 -0.604367 -0.792679
-0.374435 0.623629 -0.686211
0.836007 0.486372 0.254038
-0.719228 0.6947 -0.0101864
-0.0645929 -0.0865902 0.994148
0.652563 -0.413305 0.635091
0.177026 -0.930273 0.321333
-0.665606 0.57032 0.481357
0.526054 0.100373 -0.844507
-0.376536 0.27484 -0.884694
0.409956 0.530376 -0.74205
0.385754 -0.15037 -0.910265
0.885575 -0.146595 0.440757
0.704764 0.635029 0.316301
0.239794 -0.174673 -0.954981
-0.319502 -0.944868 -0.0717104
-0.788978 0.448874 -0.419554
-0.889559 0.158999 -0.428257
-0.550065 -0.824065 0.135445
-0.0831219 -0.943412 -0.321038
0.400858 -0.0315066 -0.915598
-0.751661 0.342889 0.563412
0.907408 0.34516 0.239739
0.308607 -0.950621 -0.0328899
-0.47375 0.705704 -0.526823
-0.541703 0.280548 -0.79237
-0.548304 0.537541 -0.640634
ITEM: TIMESTEP
7535
ITEM: NUMBER OF ATOMS
54
ITEM: BOX BOUNDS pp pp pp
0.0000000000000000e+00 8.6303750400000006e+00
0.0000000000000000e+00 8.6303750400000006e+00
0.0000000000000000e+00 8.6303750400000006e+00
ITEM: ATOMS c_outsp[1] c_outsp[2] c_outsp[3]
0.292402 -0.372244 -0.880872
0.142739 0.794861 0.589764
-0.651718 0.510198 0.561214
-0.859451 0.416244 -0.29679
0.183973 -0.862415 0.471588
-0.196463 -0.540699 -0.817953
0.160835 0.74942 -0.642263
-0.384575 -0.645531 0.659842
-0.336615 -0.90807 -0.249195
0.705916 0.155128 0.6911
-0.819026 -0.399201 -0.412111
-0.273175 -0.935582 0.223746
0.255702 0.445409 0.858037
0.123812 0.548571 -0.826886
-0.923245 0.16251 -0.348152
0.905589 -0.378681 0.191075
0.189444 -0.402018 -0.895819
0.221913 0.878931 0.42218
0.963493 -0.00685704 -0.267646
-0.0592603 -0.663447 -0.745873
0.746691 0.649365 0.144145
-0.0193247 -0.336022 -0.941656
0.668589 -0.111276 -0.735259
-0.05312 -0.768585 -0.637538
0.668557 -0.679968 0.301123
-0.526471 -0.569952 -0.630859
-0.10423 0.739163 0.665413
0.0802311 -0.592542 -0.801534
-0.357632 0.615092 -0.702681
0.844865 0.488826 0.217375
-0.66303 0.748091 -0.027411
-0.039065 -0.133186 0.990321
0.615125 -0.431415 0.659926
0.202466 -0.919334 0.33739
-0.68014 0.534962 0.501224
0.560676 0.106827 -0.821116
-0.365723 0.301883 -0.880405
0.379353 0.506751 -0.774141
0.347851 -0.142493 -0.926658
0.873228 -0.211149 0.439191
0.70915 0.621527 0.332883
0.237336 -0.17541 -0.955459
-0.347664 -0.936096 -0.0534257
-0.771306 0.470029 -0.429138
-0.899333 0.196217 -0.390766
-0.585888 -0.800628 0.12542
-0.101728 -0.939065 -0.328341
0.415566 -0.0644974 -0.907273
-0.754857 0.364022 0.545599
0.90566 0.307873 0.291538
0.248252 -0.967932 -0.0384467
-0.437466 0.706755 -0.555987
-0.504798 0.337536 -0.794512
-0.534066 0.558033 -0.635116
ITEM: TIMESTEP
7540
ITEM: NUMBER OF ATOMS
54
ITEM: BOX BOUNDS pp pp pp
0.0000000000000000e+00 8.6303750400000006e+00
0.0000000000000000e+00 8.6303750400000006e+00
0.0000000000000000e+00 8.6303750400000006e+00
ITEM: ATOMS c_outsp[1] c_outsp[2] c_outsp[3]
0.318606 -0.396834 -0.860821
0.145219 0.798866 0.583716
-0.64282 0.538349 0.544943
-0.842221 0.435474 -0.317846
0.145162 -0.883857 0.444662
-0.231754 -0.526982 -0.817667
0.159129 0.767657 -0.62079
-0.429675 -0.62215 0.654453
-0.331471 -0.918063 -0.217455
0.682381 0.159156 0.713461
-0.821925 -0.358995 -0.442225
-0.296752 -0.934939 0.194493
0.262026 0.492044 0.830202
0.176237 0.55771 -0.81111
-0.920664 0.179239 -0.346771
0.902732 -0.391947 0.177347
0.198903 -0.387634 -0.900098
0.294333 0.854401 0.428215
0.967778 -0.0620368 -0.244045
-0.109891 -0.658236 -0.744748
0.743208 0.652812 0.146554
-0.0132813 -0.340543 -0.940135
0.666502 -0.158503 -0.728458
-0.0605275 -0.804082 -0.59143
0.621172 -0.720956 0.307194
-0.498677 -0.567467 -0.655212
-0.0734653 0.75476 0.651874
0.0812599 -0.582275 -0.80892
-0.340844 0.605333 -0.719304
0.853443 0.489697 0.178414
-0.602665 0.796738 -0.044755
-0.0147278 -0.179291 0.983686
0.575977 -0.447256 0.68426
0.227376 -0.907439 0.353347
-0.693324 0.498265 0.52061
0.594324 0.110607 -0.796583
-0.354751 0.328824 -0.87523
0.347254 0.483372 -0.803596
0.310691 -0.132351 -0.941251
0.8574 -0.274834 0.435123
0.713063 0.607918 0.349252
0.23514 -0.174823 -0.95611
-0.375062 -0.926284 -0.0364145
-0.753066 0.489668 -0.439451
-0.905451 0.236405 -0.352522
-0.619769 -0.776185 0.115864
-0.119999 -0.934036 -0.336419
0.427915 -0.0981816 -0.89847
-0.757032 0.383751 0.528809
0.899779 0.270273 0.342564
0.187738 -0.981198 -0.0447837
-0.401497 0.704766 -0.584898
-0.464454 0.39189 -0.794169
-0.518946 0.579331 -0.628546
ITEM: TIMESTEP
7545
ITEM: NUMBER OF ATOMS
54
ITEM: BOX BOUNDS pp pp pp
0.0000000000000000e+00 8.6303750400000006e+00
0.0000000000000000e+00 8.6303750400000006e+00
0.0000000000000000e+00 8.6303750400000006e+00
ITEM: ATOMS c_outsp[1] c_outsp[2] c_outsp[3]
0.341858 -0.423837 -0.838746
0.148524 0.802747 0.577527
-0.633413 0.565237 0.528485
-0.82407 0.453419 -0.339588
0.106777 -0.903168 0.415796
-0.265934 -0.510331 -0.817827
0.158448 0.784858 -0.599077
-0.473393 -0.59608 0.648527
-0.325498 -0.927094 -0.185872
0.658283 0.163432 0.734816
-0.823036 -0.318068 -0.470579
-0.318968 -0.933252 0.165227
0.267787 0.537426 0.799664
0.230195 0.564463 -0.792712
-0.917705 0.19555 -0.3458
0.899701 -0.4049 0.163078
0.20884 -0.373667 -0.903747
0.363742 0.823041 0.436228
0.968397 -0.117414 -0.220047
-0.159469 -0.647528 -0.745169
0.739981 0.655913 0.149015
-0.00768899 -0.345157 -0.938513
0.662077 -0.20514 -0.720813
-0.0694121 -0.836101 -0.544166
0.571308 -0.759638 0.310736
-0.469878 -0.564262 -0.678839
-0.0427022 0.768908 0.637932
0.082862 -0.573683 -0.814875
-0.324098 0.594328 -0.736026
0.861493 0.488872 0.137237
-0.53856 0.840287 -0.062214
0.00840334 -0.22472 0.974387
0.535235 -0.460711 0.708003
0.251634 -0.894626 0.369222
-0.705018 0.460348 0.539471
0.626921 0.111733 -0.771029
-0.343495 0.355668 -0.869202
0.313783 0.460466 -0.830368
0.274438 -0.120115 -0.954073
0.838209 -0.337392 0.428453
0.716483 0.594227 0.36544
0.233347 -0.172927 -0.956894
-0.401681 -0.915547 -0.0206551
-0.73435 0.507771 -0.450443
-0.907464 0.27939 -0.313769
-0.651714 -0.75091 0.106782
-0.137917 -0.928333 -0.34522
0.437868 -0.132333 -0.889247
-0.758246 0.402179 0.513141
0.889757 0.232692 0.392666
0.127387 -0.990499 -0.0518197
-0.366091 0.699757 -0.613448
-0.421037 0.443343 -0.791312
-0.502862 0.601307 -0.620934
ITEM: TIMESTEP
7550
ITEM: NUMBER OF ATOMS
54
ITEM: BOX BOUNDS pp pp pp
0.0000000000000000e+00 8.6303750400000006e+00
0.0000000000000000e+00 8.6303750400000006e+00
0.0000000000000000e+00 8.6303750400000006e+00
ITEM: ATOMS c_outsp[1] c_outsp[2] c_outsp[3]
0.361833 -0.45299 -0.814786
0.152681 0.806477 0.571212
-0.623527 0.590887 0.511924
-0.805011 0.470023 -0.361988
0.0690482 -0.920293 0.385087
-0.298743 -0.490819 -0.818443
0.158776 0.801037 -0.577174
-0.515574 -0.567339 0.642113
-0.318742 -0.935159 -0.154537
0.633688 0.167941 0.755139
-0.822386 -0.276563 -0.497186
-0.339759 -0.930625 0.136021
0.272912 0.581332 0.766533
0.285354 0.568646 -0.771502
-0.91438 0.211482 -0.345232
0.896499 -0.417512 0.148232
0.21924 -0.360207 -0.906744
0.429461 0.785203 0.446116
0.965341 -0.172713 -0.19567
-0.207478 -0.631475 -0.747123
0.737069 0.658609 0.151537
-0.00251361 -0.349896 -0.936785
0.655409 -0.251049 -0.71233
-0.0796322 -0.864634 -0.49605
0.519188 -0.795797 0.31169
-0.440095 -0.560434 -0.701591
-0.0119815 0.781592 0.623675
0.0848002 -0.566849 -0.819446
-0.307427 0.582059 -0.752792
0.868751 0.486256 0.0939465
-0.471168 0.878428 -0.0797791
0.0303284 -0.269308 0.962576
0.493031 -0.471662 0.731065
0.275126 -0.88094 0.385033
-0.7151 0.42134 0.557768
0.658389 0.11023 -0.744563
-0.331822 0.382407 -0.862357
0.279066 0.438269 -0.854425
0.239228 -0.10596 -0.965165
0.815784 -0.398567 0.419095
0.719394 0.580468 0.381483
0.23209 -0.169758 -0.957767
-0.427508 -0.903991 -0.00611859
-0.715249 0.524326 -0.462062
-0.904938 0.324938 -0.274776
-0.68175 -0.724969 0.0981693
-0.15546 -0.921969 -0.354691
0.445413 -0.166729 -0.879664
-0.758563 0.41941 0.498676
0.875616 0.195459 0.441693
0.0674994 -0.995945 -0.0594727
-0.331496 0.691773 -0.64153
-0.374925 0.491664 -0.785938
-0.485749 0.623819 -0.612289
ITEM: TIMESTEP
7555
ITEM: NUMBER OF ATOMS
54
ITEM: BOX BOUNDS pp pp pp
0.0000000000000000e+00 8.6303750400000006e+00
0.0000000000000000e+00 8.6303750400000006e+00
0.0000000000000000e+00 8.6303750400000006e+00
ITEM: ATOMS c_outsp[1] c_outsp[2] c_outsp[3]
0.378238 -0.484004 -0.789098
0.15771 0.810029 0.564784
-0.613189 0.615334 0.495341
-0.785061 0.485226 -0.385012
0.0322154 -0.9352 0.352652
-0.329931 -0.46854 -0.819522
0.160097 0.816214 -0.555125
-0.556058 -0.535954 0.635259
-0.311251 -0.942264 -0.123537
0.608664 0.172659 0.774414
-0.819998 -0.234616 -0.522071
-0.359072 -0.927162 0.106946
0.277333 0.623547 0.730941
0.341339 0.570102 -0.747309
-0.910698 0.227073 -0.345062
0.893132 -0.429751 0.132772
0.230086 -0.34735 -0.90907
0.490859 0.741305 0.457738
0.958621 -0.227656 -0.170932
-0.253422 -0.610268 -0.750566
0.734525 0.660848 0.154123
0.00227217 -0.354796 -0.934941
0.646599 -0.296102 -0.703017
-0.0910384 -0.889703 -0.447371
0.46506 -0.829221 0.31002
-0.40936 -0.556085 -0.723322
0.0186547 0.792808 0.609186
0.0868368 -0.561827 -0.822684
-0.290866 0.568512 -0.76954
0.87494 0.48178 0.048666
-0.400965 0.910897 -0.097436
0.0510616 -0.312906 0.94841
0.449511 -0.479994 0.753357
0.297751 -0.866433 0.400797
-0.723462 0.381378 0.57546
0.688652 0.106129 -0.717283
-0.319592 0.409022 -0.854729
0.243236 0.417022 -0.875745
0.205169 -0.0900674 -0.974574
0.790261 -0.458104 0.406974
0.721782 0.566649 0.397416
0.231496 -0.165365 -0.958678
-0.45254 -0.891715 0.00723081
-0.695855 0.539328 -0.474248
-0.897462 0.372749 -0.235837
-0.709914 -0.698512 0.0900143
-0.1726 -0.914959 -0.364772
0.450565 -0.201153 -0.869787
-0.758039 0.43554 0.48547
0.857407 0.158897 0.489495
0.00835676 -0.997673 -0.0676617
-0.297957 0.680891 -0.669036
-0.326508 0.536658 -0.778068
-0.467554 0.646712 -0.602625
ITEM: TIMESTEP
7560
ITEM: NUMBER OF ATOMS
54
ITEM: BOX BOUNDS pp pp pp
0.0000000000000000e+00 8.6303750400000006e+00
0.0000000000000000e+00 8.6303750400000006e+00
0.0000000000000000e+00 8.6303750400000006e+00
ITEM: ATOMS c_outsp[1] c_outsp[2] c_outsp[3]
0.390815 -0.516564 -0.761857
0.163632 0.813377 0.55825
-0.60242 0.638616 0.478811
-0.764238 0.498967 -0.408621
-0.0034763 -0.947875 0.318623
-0.359256 -0.443607 -0.821065
0.162401 0.830405 -0.532967
-0.594684 -0.50196 0.628002
-0.30308 -0.94842 -0.092957
0.583278 0.177551 0.79263
-0.815892 -0.192358 -0.54527
-0.376869 -0.92297 0.0780743
0.280993 0.663872 0.693049
0.397741 0.5687 -0.719988
-0.906663 0.242363 -0.345285
0.889604 -0.441581 0.116667
0.241349 -0.335193 -0.910712
0.547361 0.691829 0.470923
0.948273 -0.281968 -0.145852
-0.296835 -0.584144 -0.755424
0.7324 0.662579 0.156781
0.00668757 -0.3599 -0.932967
0.635761 -0.340186 -0.692879
-0.103475 -0.911356 -0.398401
0.409193 -0.859711 0.305708
-0.377717 -0.551325 -0.743889
0.0491629 0.802555 0.594549
0.0887365 -0.558641 -0.824649
-0.274458 0.553677 -0.786203
0.879769 0.475399 0.00154231
-0.328444 0.937476 -0.115165
0.07063 -0.355385 0.932048
0.404838 -0.485594 0.774793
0.319414 -0.851163 0.416529
-0.730013 0.340604 0.592512
0.717635 0.099461 -0.689281
-0.306661 0.435475 -0.846357
0.206428 0.396969 -0.894317
0.172346 -0.0726159 -0.982356
0.761784 -0.515749 0.392031
0.723641 0.552767 0.413271
0.231682 -0.159819 -0.959573
-0.476774 -0.878811 0.0194342
-0.676256 0.552785 -0.486936
-0.884656 0.422458 -0.197266
-0.736256 -0.67168 0.0822951
-0.189309 -0.907324 -0.3754
0.453361 -0.235396 -0.859681
-0.756734 0.45066 0.47356
0.83521 0.123321 0.535926
-0.0497849 -0.995841 -0.0763076
-0.265712 0.667212 -0.695862
-0.276182 0.578166 -0.767755
-0.44824 0.669825 -0.591959
ITEM: TIMESTEP
7565
ITEM: NUMBER OF ATOMS
54
ITEM: BOX BOUNDS pp pp pp
0.0000000000000000e+00 8.6303750400000006e+00
0.0000000000000000e+00 8.6303750400000006e+00
0.0000000000000000e+00 8.6303750400000006e+00
ITEM: ATOMS c_outsp[1] c_outsp[2] c_outsp[3]
0.399345 -0.550331 -0.733253
0.170458 0.816496 0.551615
-0.591237 0.660775 0.462402
-0.742565 0.51118 -0.432773
-0.0377786 -0.958331 0.28315
-0.386487 -0.416151 -0.823071
0.165676 0.843628 -0.510728
-0.631291 -0.465406 0.620378
-0.294284 -0.953647 -0.0628777
0.557595 0.182574 0.809787
-0.810082 -0.149917 -0.566826
-0.393121 -0.918155 0.0494716
0.283839 0.702119 0.653042
0.454117 0.564343 -0.689416
-0.902278 0.25739 -0.345898
0.885918 -0.45296 0.0998879
0.252993 -0.323837 -0.91166
0.598457 0.637313 0.485471
0.934352 -0.335378 -0.120452
-0.337283 -0.553373 -0.761589
0.730739 0.663758 0.159517
0.0107425 -0.365252 -0.930847
0.62301 -0.383199 -0.681922
-0.116783 -0.92967 -0.349394
0.351882 -0.887086 0.298759
-0.345219 -0.546272 -0.763158
0.0794991 0.810841 0.579842
0.0902703 -0.557284 -0.8254
-0.258249 0.537552 -0.802711
0.882941 0.4671 -0.0472535
-0.254114 0.957994 -0.132942
0.0890717 -0.396634 0.913645
0.359191 -0.488359 0.795291
0.340035 -0.835191 0.432241
-0.73468 0.299164 0.60889
0.74526 0.0902616 -0.660637
-0.292881 0.461717 -0.83728
0.168787 0.378355 -0.910142
0.140819 -0.0537825 -0.988573
0.730505 -0.571245 0.374221
0.724963 0.538814 0.429078
0.232753 -0.153203 -0.960393
-0.500214 -0.865363 0.0305376
-0.656539 0.564709 -0.50006
-0.866179 0.473631 -0.159395
-0.760837 -0.644597 0.0749827
-0.205556 -0.899087 -0.386509
0.453863 -0.269265 -0.849414
-0.754701 0.464855 0.462965
0.809134 0.0890375 0.580839
-0.106694 -0.990623 -0.0853343
-0.23499 0.65087 -0.721905
-0.224342 0.616065 -0.755073
-0.427789 0.692988 -0.580314
ITEM: TIMESTEP
7570
ITEM: NUMBER OF ATOMS
54
ITEM: BOX BOUNDS pp pp pp
0.0000000000000000e+00 8.6303750400000006e+00
0.0000000000000000e+00 8.6303750400000006e+00
0.0000000000000000e+00 8.6303750400000006e+00
ITEM: ATOMS c_outsp[1] c_outsp[2] c_outsp[3]
0.403652 -0.584949 -0.703491
0.1782 0.819361 0.544879
-0.579655 0.681858 0.446173
-0.720067 0.521798 -0.457416
-0.0704444 -0.966604 0.246403
-0.411405 -0.386316 -0.825534
0.169912 0.855899 -0.488433
-0.665712 -0.426351 0.612415
-0.284919 -0.95797 -0.033375
0.53168 0.187675 0.82589
-0.802581 -0.107416 -0.586793
-0.407814 -0.912819 0.0212024
0.285829 0.738125 0.611125
0.509994 0.556971 -0.655507
-0.897537 0.272192 -0.346898
0.882077 -0.463841 0.0824095
0.264971 -0.313383 -0.911911
0.64371 0.57834 0.501159
0.916936 -0.387621 -0.0947535
-0.374366 -0.518262 -0.768931
0.729585 0.664343 0.162338
0.0144369 -0.370899 -0.928561
0.608467 -0.425053 -0.670148
-0.130803 -0.944743 -0.300584
0.29344 -0.911185 0.289198
-0.311933 -0.541046 -0.781004
0.109619 0.81768 0.56514
0.0912175 -0.55772 -0.825002
-0.242295 0.52014 -0.818992
0.884155 0.456901 -0.0975253
-0.178491 0.972327 -0.150737
0.106434 -0.436559 0.893358
0.312764 -0.488193 0.814768
0.35954 -0.818584 0.447942
-0.737409 0.257208 0.624558
0.771447 0.078569 -0.631424
-0.278108 0.48768 -0.827541
0.130467 0.36142 -0.92323
0.110624 -0.0337397 -0.993289
0.696584 -0.624338 0.353515
0.725747 0.524775 0.444862
0.234798 -0.145616 -0.961075
-0.522866 -0.851448 0.0405907
-0.636783 0.575128 -0.513552
-0.841747 0.525774 -0.122569
-0.783724 -0.617371 0.0680407
-0.221308 -0.890277 -0.398032
0.45215 -0.302579 -0.839051
-0.751994 0.4782 0.453685
0.779317 0.0563366 0.624092
-0.162168 -0.982211 -0.0946694
-0.206005 0.632022 -0.747067
-0.171377 0.650271 -0.74012
-0.406202 0.71603 -0.567716
ITEM: TIMESTEP
7575
ITEM: NUMBER OF ATOMS
54
ITEM: BOX BOUNDS pp pp pp
0.0000000000000000e+00 8.6303750400000006e+00
0.0000000000000000e+00 8.6303750400000006e+00
0.0000000000000000e+00 8.6303750400000006e+00
ITEM: ATOMS c_outsp[1] c_outsp[2] c_outsp[3]
0.403606 -0.620048 -0.672787
0.18686 0.821946 0.538041
-0.567683 0.701914 0.430178
-0.696776 0.530753 -0.482498
-0.101231 -0.972755 0.208566
-0.433803 -0.354267 -0.828438
0.175101 0.867231 -0.4661
-0.697782 -0.384867 0.604134
-0.275042 -0.961422 -0.00451974
0.505593 0.192795 0.840955
-0.793394 -0.0649753 -0.60523
-0.420942 -0.907063 -0.00667354
0.286927 0.771744 0.567524
0.564877 0.546563 -0.618209
-0.892436 0.286803 -0.348284
0.878087 -0.474173 0.0642127
0.277226 -0.303929 -0.911467
0.682765 0.515534 0.517742
0.896125 -0.43844 -0.0687822
-0.407726 -0.479148 -0.777288
0.728972 0.664298 0.16525
0.0177597 -0.376885 -0.92609
0.592255 -0.465671 -0.65756
-0.145374 -0.956697 -0.252184
0.234197 -0.931871 0.277072
-0.277937 -0.535768 -0.797311
0.139476 0.823093 0.550513
0.0913693 -0.559887 -0.823516
-0.226654 0.501453 -0.834969
0.88311 0.44486 -0.149051
-0.102098 0.980397 -0.168518
0.122772 -0.475084 0.871333
0.265766 -0.485013 0.833145
0.377869 -0.80141 0.463635
-0.738164 0.21488 0.639485
0.796114 0.0644248 -0.601708
-0.2622 0.513281 -0.817186
0.0916305 0.346401 -0.933601
0.0817782 -0.0126528 -0.99657
0.66019 -0.67477 0.329902
0.725993 0.510628 0.460644
0.237891 -0.137169 -0.961557
-0.544738 -0.837136 0.0496464
-0.617064 0.584075 -0.52734
-0.811134 0.578332 -0.0871421
-0.804994 -0.590095 0.0614261
-0.236535 -0.880929 -0.409898
0.448319 -0.335173 -0.828655
-0.748663 0.490762 0.445708
0.745921 0.0254942 0.665546
-0.216027 -0.970806 -0.104245
-0.178952 0.610853 -0.771255
-0.117665 0.680736 -0.723017
-0.383495 0.73878 -0.554198
ITEM: TIMESTEP
7580
ITEM: NUMBER OF ATOMS
54
ITEM: BOX BOUNDS pp pp pp
0.0000000000000000e+00 8.6303750400000006e+00
0.0000000000000000e+00 8.6303750400000006e+00
0.0000000000000000e+00 8.6303750400000006e+00
ITEM: ATOMS c_outsp[1] c_outsp[2] c_outsp[3]
0.399124 -0.65525 -0.641363
0.196436 0.824226 0.531098
-0.555331 0.720993 0.41446
-0.672729 0.537976 -0.507955
-0.129905 -0.976872 0.169839
-0.453489 -0.320177 -0.831766
0.181236 0.877636 -0.443744
-0.727331 -0.34104 0.595552
-0.26471 -0.964039 0.0236226
0.479394 0.19787 0.855002
-0.782527 -0.0227117 -0.622203
-0.432509 -0.900984 -0.0341011
0.287106 0.802858 0.522484
0.618256 0.533145 -0.577509
-0.886966 0.301255 -0.350054
0.873952 -0.483898 0.0452838
0.289692 -0.295572 -0.910338
0.715347 0.449545 0.534965
0.872037 -0.487586 -0.0425638
-0.437046 -0.436393 -0.786481
0.728932 0.663586 0.168264
0.0206891 -0.383254 -0.923411
0.574498 -0.504991 -0.644155
-0.16034 -0.965669 -0.204386
0.174498 -0.949037 0.262447
-0.243319 -0.53056 -0.811974
0.169027 0.827106 0.536028
0.0905304 -0.563695 -0.821007
-0.211394 0.481513 -0.850563
0.879512 0.431071 -0.201586
-0.0254598 0.982173 -0.186249
0.138147 -0.51215 0.847714
0.21842 -0.47875 0.850348
0.394969 -0.783741 0.479322
-0.736926 0.172328 0.653638
0.819171 0.0478748 -0.571548
-0.245022 0.538421 -0.806267