ITEM: TIMESTEP
2000
ITEM: NUMBER OF ATOMS
54
ITEM: BOX BOUNDS pp pp pp
0.0000000000000000e+00 8.6303750400000006e+00
0.0000000000000000e+00 8.6303750400000006e+00
0.0000000000000000e+00 8.6303750400000006e+00
ITEM: ATOMS c_outsp[1] c_outsp[2] c_outsp[3]
-0.801262 -0.454633 0.388959
0.288911 -0.927611 0.236787
-0.255904 0.642605 -0.7222
0.958943 0.155041 0.237468
0.14648 -0.192385 0.970326
-0.487753 -0.785097 0.381733
0.111812 0.568447 -0.815086
0.306126 0.681326 -0.664892
-0.560832 -0.742698 0.36588
-0.576633 0.133267 -0.806061
-0.640109 -0.228882 -0.733399
-0.610624 0.0535677 -0.790107
0.973847 -0.113553 0.196793
0.511964 0.824277 -0.241785
0.466611 -0.772813 -0.430157
-0.755385 -0.655204 -0.0100998
0.186309 0.0185224 -0.982317
0.253873 -0.0328911 0.966678
0.155086 -0.728005 -0.6678
-0.870118 0.429968 -0.240879
0.101811 -0.468544 -0.877554
0.8866 -0.398723 0.234437
0.140854 0.553962 -0.82054
0.537122 0.778779 0.324042
-0.854371 -0.310401 -0.416776
0.209694 -0.927719 -0.308813
0.600301 0.602771 0.525647
-0.14223 0.854856 -0.498991
-0.806945 -0.288342 -0.515459
0.721781 -0.0667286 0.688898
0.119698 0.329884 -0.936402
0.581118 -0.73978 0.339157
-0.729581 -0.411129 -0.54652
-0.0770236 -0.772727 -0.630048
-0.311529 0.949957 0.0230548
-0.84322 0.175449 0.508132
-0.26493 0.640895 -0.720462
0.511206 -0.701984 0.49587
0.780117 0.601921 -0.170612
0.865917 0.353176 -0.354196
0.690638 0.706797 -0.153159
-0.659312 -0.376273 -0.650942
-0.0505724 -0.966256 -0.252571
0.457326 0.861773 0.219547
-0.421038 0.782515 -0.458692
-0.401938 -0.728114 -0.555244
0.51207 0.599132 -0.615488
0.361077 -0.227598 -0.904335
0.0228361 0.581961 0.812896
0.112897 0.682912 0.721724
-0.965823 -0.24836 -0.0741869
-0.596402 -0.532662 -0.600479
-0.0949678 -0.960412 0.261896
0.605488 -0.78429 0.135179
ITEM: TIMESTEP
2005
ITEM: NUMBER OF ATOMS
54
ITEM: BOX BOUNDS pp pp pp
0.0000000000000000e+00 8.6303750400000006e+00
0.0000000000000000e+00 8.6303750400000006e+00
0.0000000000000000e+00 8.6303750400000006e+00
ITEM: ATOMS c_outsp[1] c_outsp[2] c_outsp[3]
-0.822646 -0.424719 0.377977
0.24288 -0.940922 0.235957
-0.23083 0.629667 -0.741779
0.958562 0.126906 0.255058
0.144434 -0.190997 0.970906
-0.522075 -0.766671 0.373702
0.117493 0.579339 -0.806574
0.292654 0.682605 -0.66963
-0.584034 -0.727298 0.360474
-0.544165 0.156831 -0.824189
-0.65196 -0.21646 -0.726701
-0.633592 0.0767887 -0.769847
0.966436 -0.150076 0.208514
0.547318 0.807876 -0.218585
0.449719 -0.785102 -0.425873
-0.7797 -0.625304 -0.0326064
0.181094 -0.00549067 -0.98345
0.261855 -0.0164292 0.964967
0.11544 -0.756016 -0.644293
-0.837923 0.493858 -0.232355
0.119277 -0.481149 -0.868486
0.869052 -0.422084 0.258059
0.212717 0.551707 -0.806456
0.561889 0.759951 0.326734
-0.833853 -0.310035 -0.456692
0.188022 -0.935754 -0.298349
0.589751 0.59498 0.54607
-0.17625 0.855873 -0.486228
-0.780613 -0.301335 -0.547578
0.74175 -0.0791448 0.665991
0.101772 0.322449 -0.9411
0.580689 -0.75541 0.303572
-0.715872 -0.426826 -0.552582
-0.0989599 -0.761358 -0.640735
-0.28136 0.959337 0.0225501
-0.827461 0.194611 0.526721
-0.235509 0.679241 -0.695103
0.479238 -0.708716 0.517738
0.783579 0.591314 -0.190662
0.867747 0.342056 -0.360574
0.706747 0.694958 -0.132443
-0.665812 -0.360419 -0.653293
-0.0843424 -0.969339 -0.230801
0.497126 0.83646 0.23065
-0.39912 0.794666 -0.457394
-0.411185 -0.709658 -0.572112
0.552408 0.581685 -0.597066
0.331497 -0.244 -0.911358
0.0181868 0.564024 0.825558
0.138846 0.702778 0.697729
-0.965263 -0.236582 -0.110885
-0.620528 -0.497089 -0.606504
-0.10216 -0.953325 0.284138
0.587049 -0.802306 0.108068
ITEM: TIMESTEP
2010
ITEM: NUMBER OF ATOMS
54
ITEM: BOX BOUNDS pp pp pp
0.0000000000000000e+00 8.6303750400000006e+00
0.0000000000000000e+00 8.6303750400000006e+00
0.0000000000000000e+00 8.6303750400000006e+00
ITEM: ATOMS c_outsp[1] c_outsp[2] c_outsp[3]
-0.207107 0.614499 -0.761247
0.14302 -0.188615 0.971581
0.279628 0.683124 -0.674648
-0.607308 -0.711534 0.353407
-0.752727 -0.316627 -0.577191
0.761056 -0.0911888 0.642245
-0.663487 -0.203765 -0.719906
-0.65544 0.100762 -0.748495
0.175805 -0.0301647 -0.983963
0.585714 0.740507 0.329528
-0.250999 0.967744 0.0217008
0.786127 0.580916 -0.211047
0.957185 0.0976856 0.272496
-0.55588 -0.746926 0.364828
0.432929 -0.796233 -0.422594
-0.801836 -0.59492 -0.0559327
0.850361 -0.444623 0.281418
0.283089 0.546513 -0.788153
-0.118755 -0.970334 -0.210592
-0.42003 -0.690574 -0.588798
-0.842845 -0.393933 0.366646
-0.510388 0.176962 -0.841539
-0.811353 -0.310156 -0.495489
0.165679 -0.943058 -0.288429
0.0113969 0.546721 0.837237
-0.111234 -0.945565 0.305832
-0.801032 0.555239 -0.223735
0.135806 -0.493741 -0.858939
0.57916 0.58665 0.566052
-0.210333 0.855782 -0.472649
0.0831245 0.316482 -0.944949
0.580349 -0.769269 0.267246
-0.811009 0.214003 0.544488
0.446486 -0.714677 0.538411
-0.377221 0.80641 -0.45542
0.195845 -0.951737 0.236309
0.123058 0.590757 -0.797411
0.957691 -0.185943 0.219665
0.270843 -0.00039923 0.962624
-0.204278 0.715015 -0.668598
0.8693 0.330561 -0.367489
0.72271 0.682036 -0.111879
0.536153 0.809157 0.240426
-0.702714 -0.442518 -0.557109
0.591535 0.562109 -0.578031
0.300427 -0.25834 -0.918153
0.166744 0.720992 0.672582
-0.642114 -0.460176 -0.613129
0.581661 0.789732 -0.194921
0.0728873 -0.780027 -0.621486
-0.120606 -0.748773 -0.651761
-0.671985 -0.343991 -0.655825
-0.96343 -0.223813 -0.147344
0.568353 -0.81879 0.0809755
ITEM: TIMESTEP
2015
ITEM: NUMBER OF ATOMS
54
ITEM: BOX BOUNDS pp pp pp
0.0000000000000000e+00 8.6303750400000006e+00
0.0000000000000000e+00 8.6303750400000006e+00
0.0000000000000000e+00 8.6303750400000006e+00
ITEM: ATOMS c_outsp[1] c_outsp[2] c_outsp[3]
-0.184893 0.597174 -0.780511
0.142265 -0.185302 0.972329
0.267081 0.682861 -0.679977
-0.630599 -0.695395 0.344632
-0.723499 -0.334223 -0.604023
0.779668 -0.10285 0.617689
-0.674656 -0.190811 -0.713044
-0.67607 0.125472 -0.726076
0.170407 -0.0554564 -0.983812
0.608538 0.720522 0.332461
-0.220463 0.975179 0.0205311
0.787766 0.570721 -0.231736
0.954729 0.0674148 0.289737
-0.589061 -0.725929 0.355012
0.416331 -0.806218 -0.420335
-0.821734 -0.564223 -0.0800371
0.830583 -0.466241 0.304552
0.351603 0.538527 -0.765744
-0.153594 -0.9693 -0.192006
-0.428463 -0.67088 -0.60526
-0.861837 -0.362261 0.354971
-0.475631 0.193603 -0.858075
-0.786961 -0.310775 -0.533021
0.142699 -0.949604 -0.279086
0.00255537 0.530227 0.847852
-0.12217 -0.937129 0.3269
-0.759636 0.613764 -0.215048
0.151466 -0.506249 -0.848982
0.568552 0.577792 0.585581
-0.244352 0.854603 -0.458199
0.0638705 0.312033 -0.947922
0.580101 -0.781328 0.230238
-0.793872 0.233586 0.56143
0.413008 -0.719892 0.557834
-0.355328 0.817765 -0.452771
0.148044 -0.959956 0.237838
0.128569 0.602709 -0.787535
0.947675 -0.221126 0.230251
0.280853 0.0150679 0.959632
-0.171479 0.748114 -0.64103
0.870533 0.318687 -0.37498
0.738491 0.668024 -0.0915179
0.574305 0.779923 0.248786
-0.690183 -0.458095 -0.560175
0.629326 0.540447 -0.558449
0.267956 -0.270474 -0.924686
0.196503 0.737342 0.646307
-0.661147 -0.422119 -0.620242
0.614878 0.769896 -0.170837
0.0278451 -0.799896 -0.599492
-0.141934 -0.734963 -0.663087
-0.677817 -0.327017 -0.658501
-0.960324 -0.210052 -0.183457
0.54951 -0.833744 0.0539385
ITEM: TIMESTEP
2020
ITEM: NUMBER OF ATOMS
54
ITEM: BOX BOUNDS pp pp pp
0.0000000000000000e+00 8.6303750400000006e+00
0.0000000000000000e+00 8.6303750400000006e+00
0.0000000000000000e+00 8.6303750400000006e+00
ITEM: ATOMS c_outsp[1] c_outsp[2] c_outsp[3]
-0.164336 0.577783 -0.799475
0.142194 -0.18113 0.973125
0.255042 0.681793 -0.685647
-0.653846 -0.678868 0.334101
-0.693164 -0.354103 -0.627801
0.797555 -0.114121 0.592353
-0.685429 -0.177615 -0.706144
-0.695385 0.150891 -0.702618
0.164864 -0.0813165 -0.982959
0.630305 0.700078 0.335568
-0.189772 0.981643 0.0190682
0.788501 0.560723 -0.252696
0.95111 0.0361365 0.30673
-0.621509 -0.703763 0.344157
0.400017 -0.815069 -0.419106
-0.839347 -0.533384 -0.104875
0.809771 -0.486844 0.327497
0.417913 0.527916 -0.73936
-0.18865 -0.966311 -0.175084
-0.436474 -0.650597 -0.621461
-0.879595 -0.329687 0.342956
-0.440215 0.20673 -0.873769
-0.760777 -0.311898 -0.569156
0.119118 -0.955366 -0.270345
-0.00823081 0.514713 0.857323
-0.134938 -0.928007 0.347268
-0.713957 0.6691 -0.206327
0.166331 -0.518611 -0.838675
0.557949 0.568416 0.604646
-0.278177 0.85236 -0.442831
0.04413 0.309143 -0.949991
0.57994 -0.791562 0.192612
-0.776058 0.253321 0.577548
0.378869 -0.724386 0.575954
-0.333426 0.828745 -0.449454
0.099726 -0.965505 0.240529
0.134094 0.615194 -0.776888
0.936449 -0.255601 0.240274
0.291894 0.0298397 0.955985
-0.137349 0.778457 -0.612486
0.871402 0.306439 -0.383085
0.754054 0.652918 -0.0714103
0.611478 0.748826 0.255643
-0.678345 -0.47345 -0.561866
0.665661 0.516748 -0.538393
0.23419 -0.280258 -0.930919
0.228014 0.751619 0.618933
-0.67763 -0.383106 -0.627732
0.646857 0.74843 -0.146385
-0.0192645 -0.815521 -0.578406
-0.162913 -0.71992 -0.674666
-0.683298 -0.309533 -0.661282
-0.955949 -0.195306 -0.219126
0.53062 -0.84718 0.0269945
ITEM: TIMESTEP
2025
ITEM: NUMBER OF ATOMS
54
ITEM: BOX BOUNDS pp pp pp
0.0000000000000000e+00 8.6303750400000006e+00
0.0000000000000000e+00 8.6303750400000006e+00
0.0000000000000000e+00 8.6303750400000006e+00
ITEM: ATOMS c_outsp[1] c_outsp[2] c_outsp[3]
-0.145579 0.556438 -0.818036
0.142828 -0.17617 0.973943
0.243535 0.679898 -0.691686
-0.67698 -0.661938 0.32177
-0.661981 -0.376212 -0.648263
0.814686 -0.125001 0.56627
-0.695777 -0.1642 -0.699238
-0.713291 0.176988 -0.678153
0.159137 -0.107689 -0.981366
0.650967 0.679265 0.338881
-0.158946 0.987135 0.0173419
0.78834 0.55091 -0.273894
0.946248 0.0039031 0.323419
-0.653113 -0.68052 0.332169
0.384069 -0.822803 -0.41891
-0.854644 -0.502575 -0.130396
0.787981 -0.506344 0.350288
0.481692 0.514855 -0.709152
-0.22372 -0.961455 -0.159853
-0.444052 -0.629749 -0.637365
-0.896087 -0.296195 0.3306
-0.404457 0.216345 -0.8886
-0.732914 -0.313529 -0.603768
0.0949741 -0.960319 -0.262236
-0.0208374 0.500341 0.865578
-0.149495 -0.918184 0.366864
-0.664239 0.720931 -0.197598
0.18048 -0.530777 -0.828072
0.547372 0.558526 0.623243
-0.311677 0.849087 -0.426507
0.0240263 0.307843 -0.951134
0.579856 -0.799948 0.154435
-0.757575 0.273165 0.592842
0.344134 -0.728182 0.592724
-0.311492 0.839358 -0.445477
0.0511481 -0.968335 0.244359
0.139704 0.628195 -0.765411
0.924069 -0.289355 0.249741
0.30396 0.0437844 0.951678
-0.102116 0.805989 -0.583056
0.871856 0.293824 -0.391835
0.769367 0.636719 -0.0516078
0.647576 0.715938 0.260919
-0.667251 -0.488484 -0.562282
0.700425 0.491065 -0.517938
0.199245 -0.287553 -0.936811
0.261146 0.763618 0.5905
-0.691583 -0.343312 -0.635492
0.677494 0.725403 -0.121621
-0.0680203 -0.826838 -0.558312
-0.183517 -0.703637 -0.686452
-0.688422 -0.29157 -0.664125
-0.950318 -0.179584 -0.254255
0.511778 -0.859117 0.000182374
ITEM: TIMESTEP
2030
ITEM: NUMBER OF ATOMS
54
ITEM: BOX BOUNDS pp pp pp
0.0000000000000000e+00 8.6303750400000006e+00
0.0000000000000000e+00 8.6303750400000006e+00
0.0000000000000000e+00 8.6303750400000006e+00
ITEM: ATOMS c_outsp[1] c_outsp[2] c_outsp[3]
-0.128751 0.53327 -0.83609
0.144185 -0.1705 0.974752
0.232584 0.677156 -0.698115
-0.699923 -0.644588 0.307594
-0.63023 -0.400466 -0.66516
0.831028 -0.135491 0.539476
-0.705669 -0.150589 -0.692354
-0.729698 0.203717 -0.652717
0.153186 -0.134513 -0.979
0.670486 0.658174 0.342428
-0.128006 0.991654 0.0153839
0.787289 0.541272 -0.295298
0.940065 -0.0292235 0.339742
-0.683759 -0.656308 0.318957
0.36857 -0.829439 -0.419746
-0.867606 -0.471967 -0.15655
0.76527 -0.524658 0.372955
0.542637 0.499532 -0.675288
-0.258611 -0.954835 -0.14632
-0.451184 -0.608362 -0.652938
-0.911272 -0.26177 0.317899
-0.368659 0.222477 -0.902549
-0.703497 -0.315668 -0.636746
0.0703089 -0.964439 -0.254784
-0.0351234 0.487267 0.872546
-0.165788 -0.907639 0.385623
-0.610756 0.768959 -0.188889
0.193995 -0.542703 -0.817214
0.536842 0.548126 0.641373
-0.344721 0.844823 -0.409197
0.00368584 0.308155 -0.951329
0.579834 -0.806466 0.115776
-0.73843 0.293072 0.607314
0.308872 -0.731307 0.608102
-0.289503 0.849611 -0.440852
0.00257368 -0.968423 0.249301
0.145471 0.641683 -0.753048
0.910587 -0.322378 0.258658
0.317037 0.0567718 0.946712
-0.0659967 0.830673 -0.552835
0.871842 0.280858 -0.40126
0.784395 0.619428 -0.0321629
0.682499 0.681333 0.264538
-0.65694 -0.503105 -0.561529
0.73351 0.463458 -0.497162
0.163257 -0.292222 -0.942313
0.295749 0.773141 0.561057
-0.703038 -0.302903 -0.643418
0.706694 0.700893 -0.0966075
-0.118005 -0.83382 -0.539276
-0.203717 -0.686111 -0.698391
-0.693186 -0.273162 -0.66699
-0.943442 -0.162906 -0.288755
0.493069 -0.869588 -0.0264579
ITEM: TIMESTEP
2035
ITEM: NUMBER OF ATOMS
54
ITEM: BOX BOUNDS pp pp pp
0.0000000000000000e+00 8.6303750400000006e+00
0.0000000000000000e+00 8.6303750400000006e+00
0.0000000000000000e+00 8.6303750400000006e+00
ITEM: ATOMS c_outsp[1] c_outsp[2] c_outsp[3]
-0.113969 0.508425 -0.853531
0.14628 -0.164198 0.975521
0.222209 0.673546 -0.704953
-0.722587 -0.6268 0.291531
-0.598208 -0.426744 -0.67826
0.84655 -0.1456 0.512009
-0.715081 -0.136808 -0.685524
-0.744519 0.231027 -0.626352
0.14697 -0.16172 -0.975831
0.688827 0.6369 0.346231
-0.0969762 0.995199 0.0132273
0.785356 0.531795 -0.316873
0.932487 -0.0631723 0.355637
-0.713331 -0.63125 0.304438
0.353596 -0.834997 -0.421605
-0.878228 -0.441729 -0.18328
0.741696 -0.541708 0.395524
0.600468 0.48214 -0.637949
-0.293144 -0.946563 -0.134478
-0.457854 -0.586467 -0.668151
-0.9251 -0.226401 0.304848
-0.333113 0.225179 -0.915604
-0.672657 -0.318313 -0.667989
0.0451646 -0.967704 -0.248012
-0.0509319 0.475636 0.878166
-0.183753 -0.896345 0.403486
-0.553806 0.812908 -0.180222
0.206956 -0.554357 -0.806137
0.526373 0.537215 0.659038
-0.377179 0.839611 -0.390882
-0.0167629 0.31009 -0.950559
0.579856 -0.8111 0.0767075
-0.718633 0.312999 0.620966
0.273156 -0.733785 0.622049
-0.267427 0.859502 -0.43559
-0.0457318 -0.965775 0.255319
0.151469 0.655618 -0.739745
0.896051 -0.354666 0.26703
0.331099 0.0686752 0.941094
-0.0291991 0.852497 -0.521916
0.871307 0.26756 -0.411384
0.799106 0.601047 -0.0131289
0.716149 0.645092 0.266433
-0.647439 -0.517235 -0.559724
0.764814 0.433989 -0.476143
0.126375 -0.294133 -0.947373
0.331648 0.780003 0.530664
-0.712038 -0.262032 -0.651414
0.734369 0.674984 -0.0714132
-0.168812 -0.836475 -0.521356
-0.223484 -0.667342 -0.710429
-0.697589 -0.254345 -0.669834
-0.935337 -0.145296 -0.322542
0.474567 -0.878629 -0.0528861
ITEM: TIMESTEP
2040
ITEM: NUMBER OF ATOMS
54
ITEM: BOX BOUNDS pp pp pp
0.0000000000000000e+00 8.6303750400000006e+00
0.0000000000000000e+00 8.6303750400000006e+00
0.0000000000000000e+00 8.6303750400000006e+00
ITEM: ATOMS c_outsp[1] c_outsp[2] c_outsp[3]
-0.101333 0.482071 -0.870253
0.149124 -0.15735 0.976219
0.212425 0.66905 -0.712213
-0.744871 -0.608558 0.273542
-0.566232 -0.454889 -0.687356
0.861221 -0.155338 0.483909
-0.72399 -0.122886 -0.678777
-0.757674 0.258857 -0.599102
0.140448 -0.189238 -0.971835
0.705967 0.615541 0.350313
-0.0658816 0.997768 0.0109062
0.782551 0.522468 -0.338587
0.923447 -0.0978632 0.371037
-0.741715 -0.605479 0.288536
0.33922 -0.839496 -0.424471
-0.886517 -0.412026 -0.210528
0.717314 -0.557423 0.418018
0.654929 0.462882 -0.597334
-0.32715 -0.936761 -0.124304
-0.464047 -0.564095 -0.682977
-0.937515 -0.190077 0.291438
-0.298094 0.224528 -0.927754
-0.640536 -0.321455 -0.69741
0.0195859 -0.970093 -0.241943
-0.0680912 0.465581 0.882382
-0.203314 -0.884267 0.420398
-0.49371 0.852524 -0.171619
0.219445 -0.565714 -0.794866
0.515979 0.525792 0.676246
-0.408925 0.833502 -0.371558
-0.0371902 0.313649 -0.94881
0.579896 -0.813836 0.0373064
-0.698193 0.332897 0.633803
0.237063 -0.735642 0.634533
-0.245233 0.869028 -0.42971
-0.0935045 -0.960426 0.262371
0.157773 0.669946 -0.725452
0.880503 -0.386217 0.274865
0.346106 0.0793731 0.934832
0.0080837 0.871462 -0.490396
0.870191 0.253957 -0.422225
0.813467 0.581585 0.00544114
0.74843 0.607295 0.266542
-0.63876 -0.530804 -0.556986
0.794242 0.402727 -0.454962
0.0887652 -0.293162 -0.951933
0.368653 0.784031 0.49939
-0.718635 -0.220841 -0.659389
0.760441 0.647767 -0.0461107
-0.220042 -0.834844 -0.504597
-0.242792 -0.647331 -0.722506
-0.701635 -0.23515 -0.672616
-0.926022 -0.126785 -0.35554
0.45634 -0.886286 -0.0790624
ITEM: TIMESTEP
2045
ITEM: NUMBER OF ATOMS
54
ITEM: BOX BOUNDS pp pp pp
0.0000000000000000e+00 8.6303750400000006e+00
0.0000000000000000e+00 8.6303750400000006e+00
0.0000000000000000e+00 8.6303750400000006e+00
ITEM: ATOMS c_outsp[1] c_outsp[2] c_outsp[3]
-0.0909266 0.454386 -0.886152
0.15272 -0.150042 0.976813
0.203246 0.663649 -0.719903
-0.766663 -0.589846 0.253595
-0.534629 -0.484708 -0.692265
0.875011 -0.164722 0.455217
-0.732376 -0.108851 -0.672143
-0.769088 0.287136 -0.571013
0.133578 -0.216988 -0.966992
0.72189 0.594197 0.354689
-0.0347496 0.99936 0.00845504
0.778883 0.513275 -0.360404
0.912882 -0.133207 0.385878
-0.768797 -0.579145 0.271186
0.325511 -0.842959 -0.428325
-0.892493 -0.383015 -0.238234
0.692181 -0.571739 0.440454
0.705787 0.441965 -0.553653
-0.360478 -0.925556 -0.115762
-0.469746 -0.541282 -0.69739
-0.94845 -0.152796 0.277661
-0.263861 0.220619 -0.938991
-0.60728 -0.325082 -0.724936
-0.00638069 -0.971587 -0.236598
-0.0864159 0.457223 0.885144
-0.224386 -0.871368 0.436314
-0.43081 0.887582 -0.163099
0.231538 -0.576756 -0.783417
0.505669 0.513851 0.693005
-0.439838 0.826548 -0.351229
-0.0574667 0.318822 -0.946071
0.579929 -0.814664 -0.00234806
-0.677122 0.35272 0.645828
0.20067 -0.736904 0.645526
-0.222885 0.878181 -0.423227
-0.140485 -0.95244 0.270411
0.164456 0.684601 -0.710124
0.86398 -0.417035 0.282169
0.362009 0.0887504 0.92794
0.0456717 0.887588 -0.458368
0.868435 0.240083 -0.433798
0.827448 0.561051 0.0234937
0.779244 0.568027 0.264811
-0.630903 -0.543755 -0.553436
0.821703 0.369743 -0.433699
0.0506103 -0.289197 -0.955931
0.406553 0.785069 0.467312
-0.722885 -0.179461 -0.667256
0.784846 0.619342 -0.0207778
-0.271313 -0.828997 -0.489033
-0.261611 -0.626084 -0.73456
-0.70533 -0.21561 -0.675294
-0.915516 -0.10741 -0.387677
0.438443 -0.892611 -0.104948
ITEM: TIMESTEP
2050
ITEM: NUMBER OF ATOMS
54
ITEM: BOX BOUNDS pp pp pp
0.0000000000000000e+00 8.6303750400000006e+00
0.0000000000000000e+00 8.6303750400000006e+00
0.0000000000000000e+00 8.6303750400000006e+00
ITEM: ATOMS c_outsp[1] c_outsp[2] c_outsp[3]
-0.0828157 0.425564 -0.901131
0.157069 -0.142365 0.977272
0.194683 0.657325 -0.728026
-0.787838 -0.570653 0.23166
-0.503736 -0.51597 -0.692838
0.887889 -0.173772 0.425977
-0.740223 -0.094733 -0.665654
-0.778694 0.315787 -0.542138
0.126319 -0.244888 -0.961287
0.736587 0.572966 0.359372
-0.00360949 0.999976 0.00590819
0.77436 0.504204 -0.382289
0.900737 -0.169108 0.400095
-0.794465 -0.552407 0.252333
0.312531 -0.845409 -0.433138
-0.896185 -0.354851 -0.266333
0.66635 -0.584596 0.462844
0.752834 0.419599 -0.507128
-0.39299 -0.913083 -0.108801
-0.474931 -0.518067 -0.71137
-0.957832 -0.114561 0.263504
-0.230653 0.213568 -0.949309
-0.573042 -0.329179 -0.750509
-0.032687 -0.972168 -0.231995
-0.105708 0.450669 0.88641
-0.246872 -0.857599 0.451195
-0.365471 0.917881 -0.154678
0.24331 -0.587474 -0.7718
0.495447 0.501386 0.709326
-0.469802 0.818804 -0.329919
-0.0774635 0.325588 -0.942333
0.579926 -0.813577 -0.0421734
-0.655432 0.37242 0.657048
0.164061 -0.737597 0.655008
-0.200344 0.886945 -0.416162
-0.186424 -0.941906 0.27939
0.171592 0.699505 -0.693721
0.846514 -0.447127 0.288949
0.378747 0.0967002 0.920435
0.0833989 0.900906 -0.425927
0.865979 0.225979 -0.44611
0.841015 0.539458 0.0409757
0.808491 0.527371 0.261192
-0.623858 -0.556045 -0.549195
0.847112 0.335113 -0.412433
0.0121099 -0.282133 -0.959299
0.44512 0.782981 0.434521
-0.724853 -0.138014 -0.674937
0.807528 0.589811 0.00450409
-0.322258 -0.819034 -0.474693
-0.279914 -0.603608 -0.746529
-0.708683 -0.195758 -0.677825
-0.903839 -0.0872157 -0.418889
0.420922 -0.89766 -0.130505
ITEM: TIMESTEP
2055
ITEM: NUMBER OF ATOMS
54
ITEM: BOX BOUNDS pp pp pp
0.0000000000000000e+00 8.6303750400000006e+00
0.0000000000000000e+00 8.6303750400000006e+00
0.0000000000000000e+00 8.6303750400000006e+00
ITEM: ATOMS c_outsp[1] c_outsp[2] c_outsp[3]
-0.0770457 0.395811 -0.915094
0.162164 -0.134412 0.977566
0.186744 0.650061 -0.736578
-0.808259 -0.550971 0.20772
-0.473897 -0.54841 -0.688961
0.899826 -0.18251 0.396236
-0.747518 -0.0805613 -0.659339
-0.786434 0.344721 -0.512531
0.118632 -0.27285 -0.954714
0.750059 0.551946 0.364372
0.027508 0.999616 0.0032992
0.768992 0.495244 -0.404209
0.886961 -0.20546 0.413626
-0.818609 -0.525438 0.231936
0.30034 -0.846867 -0.438877
-0.897632 -0.327678 -0.29476
0.639875 -0.595942 0.485193
0.795883 0.395998 -0.45799
-0.424565 -0.899478 -0.103363
-0.479584 -0.494491 -0.724898
-0.965577 -0.0753812 0.248957
-0.198692 0.203506 -0.9587
-0.537978 -0.333726 -0.774084
-0.0592831 -0.971819 -0.228151
-0.125759 0.44601 0.886149
-0.270668 -0.842912 0.465014
-0.298073 0.943254 -0.146372
0.254828 -0.597862 -0.760015
0.485314 0.488389 0.725222
-0.498709 0.810329 -0.307662
-0.0970544 0.333913 -0.937594
0.579857 -0.810573 -0.0820839
-0.633134 0.39195 0.66747
0.127321 -0.737748 0.662961
-0.177571 0.895303 -0.408536
-0.231083 -0.928942 0.289254
0.17925 0.714569 -0.67621
0.82813 -0.476498 0.295212
0.396249 0.103125 0.912333
0.121114 0.911457 -0.393163
0.862762 0.211691 -0.459161
0.854138 0.516821 0.0578348
0.836072 0.485416 0.255647
-0.617603 -0.56764 -0.544382
0.870391 0.298916 -0.39124
-0.02652 -0.271882 -0.961965
0.484113 0.777651 0.401114
-0.724605 -0.0966109 -0.682359
0.828447 0.559282 0.0296499
-0.37253 -0.805078 -0.461596
-0.297674 -0.579916 -0.758345
-0.711705 -0.175622 -0.680171
-0.891013 -0.066254 -0.449118
0.403812 -0.901495 -0.155698
ITEM: TIMESTEP
2060
ITEM: NUMBER OF ATOMS
54
ITEM: BOX BOUNDS pp pp pp
0.0000000000000000e+00 8.6303750400000006e+00
0.0000000000000000e+00 8.6303750400000006e+00
0.0000000000000000e+00 8.6303750400000006e+00
ITEM: ATOMS c_outsp[1] c_outsp[2] c_outsp[3]
-0.073642 0.365339 -0.927957
0.167992 -0.12628 0.977667
0.179434 0.641841 -0.745549
-0.827776 -0.5308 0.181762
-0.445454 -0.581728 -0.680561
0.910795 -0.190964 0.366041
-0.754249 -0.0663656 -0.653226
-0.79226 0.373848 -0.482248
0.110479 -0.300785 -0.947271
0.762314 0.531229 0.369694
0.0585705 0.998283 0.000660433
0.76279 0.486381 -0.426127
0.871514 -0.242153 0.42641
-0.841125 -0.498419 0.20997
0.288989 -0.847356 -0.445503
-0.896883 -0.301633 -0.323446
0.612807 -0.605731 0.507502
0.834775 0.371379 -0.406482
-0.455097 -0.884879 -0.0993749
-0.483685 -0.470599 -0.73796
-0.971594 -0.0352774 0.234009
-0.16818 0.190579 -0.967158
-0.502247 -0.338698 -0.795633
-0.0861175 -0.970527 -0.22508
-0.14635 0.443322 0.884334
-0.295658 -0.827249 0.47775
-0.229012 0.963564 -0.138193
0.266155 -0.607922 -0.748059
0.475263 0.47485 0.740704
-0.526463 0.801181 -0.28451
-0.116116 0.343753 -0.931854
0.57969 -0.805654 -0.121991
-0.610244 0.411262 0.677101
0.0905393 -0.737386 0.669377
-0.154525 0.903231 -0.400371
-0.274237 -0.913688 0.299948
0.187498 0.729696 -0.657562
0.808849 -0.505158 0.300963
0.414435 0.107939 0.903655
0.158679 0.919295 -0.360163
0.858723 0.197275 -0.472945
0.866784 0.493161 0.0740197
0.861882 0.442248 0.248147
-0.612105 -0.578523 -0.539109
0.891465 0.261238 -0.370196
-0.0650474 -0.258372 -0.963853
0.523279 0.768989 0.367199
-0.722209 -0.055355 -0.689456
0.847573 0.527866 0.0545721
-0.421799 -0.787275 -0.449759
-0.314862 -0.555022 -0.769943
-0.714411 -0.155231 -0.682291
-0.877057 -0.0445828 -0.478313
0.38714 -0.904182 -0.180494
ITEM: TIMESTEP
2065
ITEM: NUMBER OF ATOMS
54
ITEM: BOX BOUNDS pp pp pp
0.0000000000000000e+00 8.6303750400000006e+00
0.0000000000000000e+00 8.6303750400000006e+00
0.0000000000000000e+00 8.6303750400000006e+00
ITEM: ATOMS c_outsp[1] c_outsp[2] c_outsp[3]
-0.0726089 0.334369 -0.939641
0.174532 -0.118066 0.977547
0.172755 0.63265 -0.754924
-0.846227 -0.510147 0.153789
-0.418746 -0.615591 -0.667607
0.920768 -0.199162 0.335441
-0.760408 -0.0521747 -0.647347
-0.79613 0.403066 -0.451348
0.101825 -0.328599 -0.938965
0.773365 0.510908 0.37534
0.0895443 0.995981 -0.00197752
0.755765 0.477609 -0.448006
0.854361 -0.27907 0.438392
-0.861913 -0.471542 0.186426
0.278528 -0.8469 -0.452971
-0.893994 -0.276845 -0.352322
0.585192 -0.613921 0.529765
0.869372 0.345957 -0.352854
-0.484499 -0.869424 -0.0967598
-0.487213 -0.446439 -0.750544
-0.975787 0.00571999 0.218649
-0.139297 0.174945 -0.974675
-0.466009 -0.344067 -0.81514
-0.113137 -0.968278 -0.222796
-0.167256 0.442663 0.880951
-0.321718 -0.810551 0.489393
-0.158696 0.978711 -0.130153
0.277347 -0.61766 -0.735918
0.465283 0.46076 0.755786
-0.552976 0.791418 -0.260529
-0.13453 0.355052 -0.925116
0.579394 -0.798826 -0.161802
-0.586777 0.430311 0.685948
0.0538058 -0.73654 0.674251
-0.131163 0.910701 -0.39169
-0.315681 -0.896306 0.311417
0.196399 0.744775 -0.63776
0.788686 -0.533114 0.306207
0.433214 0.111066 0.894421
0.195971 0.924478 -0.327012
0.853803 0.18279 -0.487451
0.878921 0.468499 0.0894806
0.885815 0.397956 0.238667
-0.607325 -0.588686 -0.533483
0.910264 0.222167 -0.349372
-0.103225 -0.24155 -0.964883
0.562355 0.756929 0.332889
-0.717737 -0.0143409 -0.696167
0.864892 0.495674 0.0791812
-0.469758 -0.765792 -0.439193
-0.33145 -0.528948 -0.781253
-0.716813 -0.134611 -0.684148
-0.861994 -0.022267 -0.50643
0.37092 -0.905787 -0.204863
ITEM: TIMESTEP
2070
ITEM: NUMBER OF ATOMS
54
ITEM: BOX BOUNDS pp pp pp
0.0000000000000000e+00 8.6303750400000006e+00
0.0000000000000000e+00 8.6303750400000006e+00
0.0000000000000000e+00 8.6303750400000006e+00
ITEM: ATOMS c_outsp[1] c_outsp[2] c_outsp[3]
-0.0739299 0.303125 -0.950079
0.181757 -0.10987 0.977186
0.166709 0.622475 -0.764679
-0.863438 -0.489025 0.123813
-0.394102 -0.649638 -0.650119
0.929722 -0.207136 0.304487
-0.765988 -0.0380168 -0.641729
-0.798018 0.43227 -0.419892
0.092635 -0.356197 -0.929808
0.783233 0.491067 0.381313
0.120395 0.992715 -0.00458627
0.747926 0.46892 -0.46981
0.835475 -0.316088 0.449521
-0.88088 -0.445005 0.161311
0.268999 -0.845521 -0.461231
-0.889028 -0.253433 -0.381315
0.557078 -0.62048 0.551969
0.89956 0.319949 -0.297361
-0.512698 -0.853249 -0.0954321
-0.490147 -0.42206 -0.762641
-0.97805 0.0475682 0.202869
-0.112204 0.156775 -0.98124
-0.429424 -0.349801 -0.832607
-0.140289 -0.96506 -0.221309
-0.188246 0.444074 0.875992
-0.348715 -0.792751 0.499943
-0.0875438 0.988629 -0.122264
0.288451 -0.627082 -0.723577
0.455357 0.446108 0.770479
-0.578175 0.781097 -0.235798
-0.152182 0.367742 -0.917391
0.578942 -0.790098 -0.201422
-0.562748 0.449052 0.694022
0.0172134 -0.735242 0.677586
-0.107444 0.91768 -0.382518
-0.35523 -0.876979 0.323605
0.20601 0.75969 -0.61679
0.767652 -0.560376 0.310949
0.452491 0.112446 0.884651
0.232878 0.927069 -0.293788
0.847944 0.168304 -0.502658
0.890517 0.442865 0.10417
0.907762 0.352634 0.227196
-0.603217 -0.598136 -0.5276
0.926724 0.181794 -0.328836
-0.140792 -0.221384 -0.96497
0.60107 0.741436 0.298308
-0.711258 0.026344 -0.702438
0.880402 0.462821 0.103387
-0.51612 -0.740812 -0.429904
-0.347408 -0.501714 -0.792206
-0.718929 -0.113785 -0.685707
-0.845845 0.000621946 -0.533428
0.355158 -0.906379 -0.228779
ITEM: TIMESTEP
2075
ITEM: NUMBER OF ATOMS
54
ITEM: BOX BOUNDS pp pp pp
0.0000000000000000e+00 8.6303750400000006e+00
0.0000000000000000e+00 8.6303750400000006e+00
0.0000000000000000e+00 8.6303750400000006e+00
ITEM: ATOMS c_outsp[1] c_outsp[2] c_outsp[3]
-0.0775679 0.271831 -0.959214
0.18963 -0.101795 0.976565
0.161292 0.611303 -0.774786
-0.879226 -0.467463 0.0918639
-0.371837 -0.683481 -0.628165
0.937633 -0.214917 0.273231
-0.770987 -0.0239188 -0.636402
-0.797906 0.461352 -0.387944
0.0828811 -0.383481 -0.919822
0.791945 0.471788 0.387609
0.151087 0.988495 -0.00714004
0.739284 0.46031 -0.491501
0.814839 -0.353081 0.459752
-0.897941 -0.419011 0.134654
0.260436 -0.843242 -0.470229
-0.882052 -0.231506 -0.410353
0.528506 -0.625376 0.574096
0.925249 0.293572 -0.240268
-0.539635 -0.836488 -0.0953013
-0.492469 -0.397515 -0.774246
-0.978274 0.090211 0.186661
-0.0870425 0.136247 -0.986844
-0.392651 -0.355865 -0.848048
-0.167517 -0.960865 -0.220628
-0.209084 0.447575 0.86946
-0.376508 -0.773784 0.509412
-0.0159771 0.993291 -0.114536
0.299507 -0.636203 -0.711015
0.445463 0.430886 0.784793
-0.601998 0.770276 -0.210411
-0.168966 0.381746 -0.908691
0.578306 -0.779487 -0.240754
-0.538175 0.467441 0.701332
-0.0191439 -0.733525 0.679393
-0.0833284 0.92413 -0.37288
-0.39272 -0.855902 0.336457
0.216382 0.774317 -0.594652
0.745752 -0.586948 0.31519
0.472161 0.112028 0.874365
0.269303 0.927136 -0.260566
0.841092 0.153892 -0.518539
0.901538 0.416287 0.118041
0.927607 0.306375 0.213729
-0.599729 -0.60689 -0.521546
0.940784 0.140218 -0.308651
-0.177475 -0.197867 -0.964029
0.639153 0.722501 0.263583
-0.702843 0.0666184 -0.708219
0.894117 0.42942 0.127098
-0.560622 -0.712535 -0.421897
-0.362707 -0.473349 -0.802735
-0.720775 -0.092776 -0.686932
-0.828634 0.0240061 -0.559276
0.339853 -0.906027 -0.25222
ITEM: TIMESTEP
2080
ITEM: NUMBER OF ATOMS
54
ITEM: BOX BOUNDS pp pp pp
0.0000000000000000e+00 8.6303750400000006e+00
0.0000000000000000e+00 8.6303750400000006e+00
0.0000000000000000e+00 8.6303750400000006e+00
ITEM: ATOMS c_outsp[1] c_outsp[2] c_outsp[3]
-0.0834657 0.24071 -0.967002
0.198106 -0.093942 0.975668
0.156502 0.599127 -0.78521
-0.893403 -0.445497 0.0579859
-0.352245 -0.716714 -0.601867
0.944481 -0.222538 0.241727
-0.7754 -0.00990651 -0.631393
-0.795787 0.4902 -0.355567
0.0725373 -0.410355 -0.909036
0.799531 0.453142 0.394225
0.181587 0.983328 -0.00961599
0.729853 0.451779 -0.513041
0.79244 -0.389918 0.469045
-0.91302 -0.393767 0.106501
0.25287 -0.840087 -0.479906
-0.873141 -0.211162 -0.439359
0.499516 -0.628587 0.596122
0.946374 0.267041 -0.181841
-0.565269 -0.81927 -0.096273
-0.494157 -0.372862 -0.785356
-0.976345 0.133578 0.170021
-0.0639317 0.113548 -0.991473
-0.355846 -0.362222 -0.861492
-0.194765 -0.955684 -0.220759
-0.229534 0.45317 0.861366
-0.404948 -0.753578 0.517819
0.0555799 0.992706 -0.106982
0.310547 -0.645034 -0.698206
0.435571 0.415086 0.798737
-0.624401 0.759008 -0.184475
-0.184785 0.396975 -0.899036
0.577463 -0.767011 -0.279697
-0.513075 0.485437 0.707888
-0.0551717 -0.731423 0.679689
-0.0587768 0.93001 -0.362803