ITEM: TIMESTEP
0
ITEM: NUMBER OF ATOMS
54
ITEM: BOX BOUNDS pp pp pp
0.0000000000000000e+00 8.6303750400000006e+00
0.0000000000000000e+00 8.6303750400000006e+00
0.0000000000000000e+00 8.6303750400000006e+00
ITEM: ATOMS type x y z c_outsp[1] c_outsp[2] c_outsp[3]
1 0 0 0 0.601604 0.795089 -0.0768528
1 0 0 2.87679 0.632622 -0.48477 -0.603976
1 0 2.87679 0 0.80507 0.193026 -0.560896
1 2.87679 0 0 -0.50291 -0.616191 -0.606127
1 1.4384 1.4384 1.4384 -0.180365 -0.30508 -0.935091
1 0 2.87679 2.87679 0.388238 -0.921297 0.0219835
1 2.87679 0 2.87679 -0.841505 0.189122 -0.506065
1 2.87679 2.87679 0 0.608884 -0.756096 -0.239956
1 2.87679 2.87679 2.87679 0.90069 0.00408149 0.434443
1 5.75358 0 0 0.307666 0.770317 -0.558528
1 4.31519 1.4384 1.4384 -0.531281 -0.306764 -0.789707
1 5.75358 0 2.87679 0.418236 -0.773787 0.475744
1 5.75358 2.87679 0 0.595244 -0.771511 -0.224622
1 7.19198 1.4384 1.4384 0.329698 0.713747 0.617952
1 5.75358 2.87679 2.87679 -0.259981 0.689588 -0.675928
1 0 5.75358 0 -0.815582 0.54267 -0.200839
1 1.4384 4.31519 1.4384 -0.762805 -0.63421 -0.126124
1 0 5.75358 2.87679 0.615155 0.268092 0.741425
1 2.87679 5.75358 0 0.281024 0.959656 0.00927919
1 1.4384 7.19198 1.4384 0.691019 0.259459 -0.674666
1 2.87679 5.75358 2.87679 -0.588104 -0.564173 -0.579519
1 4.31519 4.31519 1.4384 -0.706982 -0.522268 -0.476878
1 5.75358 5.75358 0 0.475318 0.659128 -0.582771
1 4.31519 7.19198 1.4384 -0.487167 0.856029 0.172866
1 7.19198 4.31519 1.4384 0.188374 -0.691922 -0.696964
1 5.75358 5.75358 2.87679 0.839941 0.132058 -0.526364
1 7.19198 7.19198 1.4384 0.154905 -0.116711 -0.981011
1 0 0 5.75358 0.0798551 0.864964 -0.495439
1 1.4384 1.4384 4.31519 -0.798488 0.475379 0.369366
1 0 2.87679 5.75358 -0.906197 -0.419582 0.0525136
1 2.87679 0 5.75358 0.629887 0.647594 0.428793
1 1.4384 1.4384 7.19198 0.613823 -0.750026 0.246339
1 2.87679 2.87679 5.75358 0.561539 0.523047 0.641167
1 4.31519 1.4384 4.31519 0.470989 -0.444044 0.76223
1 5.75358 0 5.75358 -0.691002 -0.716201 -0.0978384
1 4.31519 1.4384 7.19198 -0.231951 -0.412474 -0.880945
1 7.19198 1.4384 4.31519 -0.595287 0.448768 0.666514
1 5.75358 2.87679 5.75358 -0.192917 -0.443042 0.875498
1 7.19198 1.4384 7.19198 0.00337377 -0.196119 -0.980574
1 1.4384 4.31519 4.31519 -0.725791 -0.643469 -0.243259
1 0 5.75358 5.75358 0.931673 0.360916 0.0415217
1 1.4384 4.31519 7.19198 0.385046 -0.670099 -0.634592
1 1.4384 7.19198 4.31519 0.299445 0.520753 0.799468
1 2.87679 5.75358 5.75358 -0.0250968 0.962692 0.269435
1 1.4384 7.19198 7.19198 0.591458 0.763488 -0.25935
1 4.31519 4.31519 4.31519 -0.383006 0.155826 -0.910508
1 4.31519 4.31519 7.19198 -0.565662 -0.660448 -0.493797
1 4.31519 7.19198 4.31519 -0.723772 -0.685618 -0.0779868
1 7.19198 4.31519 4.31519 -0.67723 -0.732277 -0.0716179
1 5.75358 5.75358 5.75358 -0.613215 -0.773083 0.162203
1 4.31519 7.19198 7.19198 0.219894 0.929128 -0.297267
1 7.19198 4.31519 7.19198 -0.756226 0.619678 -0.21005
1 7.19198 7.19198 4.31519 0.741396 -0.669481 0.0461265
1 7.19198 7.19198 7.19198 -0.399573 -0.603626 -0.689911
ITEM: TIMESTEP
100
ITEM: NUMBER OF ATOMS
54
ITEM: BOX BOUNDS pp pp pp
0.0000000000000000e+00 8.6303750400000006e+00
0.0000000000000000e+00 8.6303750400000006e+00
0.0000000000000000e+00 8.6303750400000006e+00
ITEM: ATOMS type x y z c_outsp[1] c_outsp[2] c_outsp[3]
1 0.0593236 8.63038 1.45196e-14 0.873603 -0.417717 -0.249661
1 0.0148309 5.95305e-15 2.87679 0.502333 -0.163897 -0.848999
1 0.0148309 2.87679 5.4598e-15 0.67189 -0.705773 0.224607
1 2.93612 8.63038 3.65699e-15 -0.590529 0.798657 -0.115854
1 1.46806 1.4384 1.4384 0.45684 0.00906421 -0.889503
1 8.60071 2.87679 2.87679 -0.111847 -0.742636 0.660289
1 2.89162 4.44726e-15 2.87679 -0.764825 0.407189 -0.49924
1 2.89162 2.87679 8.63038 -0.685853 -0.723124 0.0818392
1 2.84713 2.87679 2.87679 0.52042 -0.0315948 0.853326
1 5.81291 8.63038 4.10335e-15 0.776701 0.00788085 -0.629821
1 4.34485 1.4384 1.4384 -0.308767 -0.0247051 -0.950817
1 5.76841 7.76977e-15 2.87679 0.177428 -0.897386 0.404003
1 5.76841 2.87679 8.63038 -0.765349 -0.642751 -0.0333381
1 7.22164 1.4384 1.4384 -0.0225039 -0.390925 0.920148
1 5.72392 2.87679 2.87679 0.407432 0.451914 -0.793582
1 0.0148309 5.75358 1.80079e-15 0.515038 0.801864 0.302902
1 1.42356 4.31519 1.4384 -0.59244 -0.138825 -0.793563
1 8.60071 5.75358 2.87679 -0.170261 -0.206442 0.963531
1 2.89162 5.75358 8.63038 0.891165 -0.0454831 -0.451393
1 1.46806 7.19198 1.4384 0.161558 0.0248857 -0.986549
1 2.84713 5.75358 2.87679 -0.846124 -0.227852 -0.481827
1 4.30036 4.31519 1.4384 -0.345343 0.383108 -0.856718
1 5.76841 5.75358 8.63038 0.237897 -0.28086 -0.929797
1 4.34485 7.19198 1.4384 0.764212 0.585526 0.270444
1 7.17715 4.31519 1.4384 0.102398 -0.411546 -0.905618
1 5.72392 5.75358 2.87679 0.592223 -0.799024 0.104084
1 7.22164 7.19198 1.4384 0.283936 0.863358 -0.417126
1 0.0148309 8.63038 5.75358 0.198004 0.914011 -0.354087
1 1.42356 1.4384 4.31519 -0.83809 0.178973 0.515338
1 8.60071 2.87679 5.75358 -0.976071 -0.111233 -0.186847
1 2.89162 8.63038 5.75358 0.740996 0.643912 0.190533
1 1.46806 1.4384 7.19198 0.0791719 -0.981756 -0.17288
1 2.84713 2.87679 5.75358 0.124123 0.657153 0.743467
1 4.30036 1.4384 4.31519 0.634907 -0.010756 0.772514
1 5.76841 8.72722e-19 5.75358 -0.867985 -0.472467 -0.152894
1 4.34485 1.4384 7.19198 0.0505715 -0.490109 -0.870193
1 7.17715 1.4384 4.31519 -0.865776 0.495328 0.0712924
1 5.72392 2.87679 5.75358 -0.388251 0.747997 0.538296
1 7.22164 1.4384 7.19198 0.0558692 -0.322089 -0.945059
1 1.37907 4.31519 4.31519 -0.243487 -0.909349 -0.33734
1 8.60071 5.75358 5.75358 0.995692 0.0851639 -0.0366729
1 1.42356 4.31519 7.19198 0.0706802 -0.420805 -0.904393
1 1.42356 7.19198 4.31519 0.7544 0.0796162 0.651569
1 2.84713 5.75358 5.75358 0.576274 0.739493 0.347934
1 1.46806 7.19198 7.19198 0.582123 0.79588 -0.166459
1 4.25586 4.31519 4.31519 -0.166959 -0.26318 -0.95019
1 4.30036 4.31519 7.19198 -0.82855 -0.344047 -0.441742
1 4.30036 7.19198 4.31519 -0.684671 -0.711331 -0.158852
1 7.13266 4.31519 4.31519 -0.584685 -0.784003 -0.208527
1 5.72392 5.75358 5.75358 -0.996609 0.0542927 0.0618218
1 4.34485 7.19198 7.19198 0.557104 0.554625 -0.618083
1 7.17715 4.31519 7.19198 -0.0351157 0.681417 -0.731053
1 7.17715 7.19198 4.31519 0.624664 -0.696192 0.35371
1 7.22164 7.19198 7.19198 -0.899581 0.42649 -0.0941305
ITEM: TIMESTEP
200
ITEM: NUMBER OF ATOMS
54
ITEM: BOX BOUNDS pp pp pp
0.0000000000000000e+00 8.6303750400000006e+00
0.0000000000000000e+00 8.6303750400000006e+00
0.0000000000000000e+00 8.6303750400000006e+00
ITEM: ATOMS type x y z c_outsp[1] c_outsp[2] c_outsp[3]
1 0.115794 8.63038 2.8341e-14 0.47546 -0.509428 -0.717232
1 0.0289486 1.16198e-14 2.87679 0.517877 -0.0245243 -0.855104
1 0.0289486 2.87679 1.0657e-14 -0.783268 -0.503356 0.364862
1 2.99259 8.63038 7.13811e-15 0.584791 0.520753 0.621962
1 1.49629 1.4384 1.4384 0.692896 -0.411166 -0.592315
1 8.57248 2.87679 2.87679 -0.870672 -0.0938749 0.482822
1 2.90574 8.68065e-15 2.87679 -0.635128 0.758201 -0.14746
1 2.90574 2.87679 8.63038 -0.784973 0.545294 -0.29406
1 2.81889 2.87679 2.87679 0.317122 -0.191756 0.928797
1 5.86938 8.63038 8.00937e-15 0.626392 -0.56501 -0.537025
1 4.37308 1.4384 1.4384 -0.25002 0.164976 -0.954082
1 5.78253 1.51659e-14 2.87679 -0.00285231 -0.960824 0.277146
1 5.78253 2.87679 8.63038 -0.515929 0.712801 -0.475112
1 7.24988 1.4384 1.4384 -0.938624 -0.142578 0.314097
1 5.69569 2.87679 2.87679 0.826272 -0.219491 -0.518746
1 0.0289486 5.75358 3.51498e-15 0.873074 -0.451421 0.184283
1 1.40945 4.31519 1.4384 0.0619105 -0.167969 -0.983846
1 8.57248 5.75358 2.87679 -0.870739 -0.319235 0.374035
1 2.90574 5.75358 8.63038 -0.0754605 -0.405185 -0.911115
1 1.49629 7.19198 1.4384 0.0903378 0.653048 -0.751909
1 2.81889 5.75358 2.87679 -0.30351 0.501419 -0.810223
1 4.28624 4.31519 1.4384 0.401713 -0.101264 -0.91015
1 5.78253 5.75358 8.63038 -0.33272 0.203107 -0.920894
1 4.37308 7.19198 1.4384 0.727497 -0.544174 0.417878
1 7.16303 4.31519 1.4384 0.451778 -0.688024 -0.567909
1 5.69569 5.75358 2.87679 -0.293977 -0.936992 0.188741
1 7.24988 7.19198 1.4384 0.401772 0.656865 0.63805
1 0.0289486 8.63038 5.75358 0.250277 0.948691 -0.193252
1 1.40945 1.4384 4.31519 -0.544576 -0.0183582 0.838511
1 8.57248 2.87679 5.75358 -0.716186 0.191926 -0.671001
1 2.90574 8.63038 5.75358 0.705547 0.665031 0.244822
1 1.49629 1.4384 7.19198 -0.322551 -0.928253 -0.185222
1 2.81889 2.87679 5.75358 0.0716624 0.869108 0.489404
1 4.28624 1.4384 4.31519 0.879451 0.120188 0.460565
1 5.78253 1.70348e-18 5.75358 -0.987197 -0.0826981 -0.136394
1 4.37308 1.4384 7.19198 -0.585878 -0.643591 -0.492481
1 7.16303 1.4384 4.31519 -0.762349 0.542518 -0.352845
1 5.69569 2.87679 5.75358 0.557108 0.7138 -0.424405
1 7.24988 1.4384 7.19198 -0.301564 -0.798191 -0.521488
1 1.3226 4.31519 4.31519 0.10545 -0.99145 -0.0768537
1 8.57248 5.75358 5.75358 0.999493 -0.0278995 -0.0153594
1 1.40945 4.31519 7.19198 0.135287 -0.130076 -0.982231
1 1.40945 7.19198 4.31519 0.932449 -0.310997 0.183903
1 2.81889 5.75358 5.75358 0.855071 -0.0756873 0.512958
1 1.49629 7.19198 7.19198 0.893212 0.275929 0.355015
1 4.19939 4.31519 4.31519 -0.322607 -0.314246 -0.892846
1 4.28624 4.31519 7.19198 -0.787435 0.614974 0.0418729
1 4.28624 7.19198 4.31519 -0.653358 -0.692287 -0.306369
1 7.07618 4.31519 4.31519 -0.759516 -0.627257 -0.172288
1 5.69569 5.75358 5.75358 -0.666782 0.672171 -0.321851
1 4.37308 7.19198 7.19198 0.536042 0.294168 -0.79128
1 7.16303 4.31519 7.19198 0.220215 0.0530936 -0.974005
1 7.16303 7.19198 4.31519 0.479276 -0.488436 0.729194
1 7.24988 7.19198 7.19198 -0.201572 0.707563 0.677291
ITEM: TIMESTEP
300
ITEM: NUMBER OF ATOMS
54
ITEM: BOX BOUNDS pp pp pp
0.0000000000000000e+00 8.6303750400000006e+00
0.0000000000000000e+00 8.6303750400000006e+00
0.0000000000000000e+00 8.6303750400000006e+00
ITEM: ATOMS type x y z c_outsp[1] c_outsp[2] c_outsp[3]
1 0.166697 8.63038 4.07996e-14 0.598262 -0.268869 -0.754846
1 0.0416742 1.67278e-14 2.87679 0.228494 -0.0240338 -0.973249
1 0.0416742 2.87679 1.53418e-14 -0.427734 0.765645 -0.48045
1 3.04349 8.63038 1.0276e-14 0.487051 -0.421435 0.764967
1 1.52174 1.4384 1.4384 0.290774 -0.822932 -0.488092
1 8.54703 2.87679 2.87679 -0.75769 0.442974 -0.479249
1 2.91847 1.24966e-14 2.87679 -0.639184 0.68144 0.356487
1 2.91847 2.87679 8.63038 0.23398 0.851095 -0.46999
1 2.79344 2.87679 2.87679 -0.202716 -0.46618 0.861152
1 5.92028 8.63038 1.15302e-14 0.485339 -0.852355 -0.194773
1 4.39854 1.4384 1.4384 0.148144 0.518831 -0.841943
1 5.79526 2.18327e-14 2.87679 -0.112423 -0.874124 0.472514
1 5.79526 2.87679 8.63038 0.49033 0.247743 -0.835584
1 7.27533 1.4384 1.4384 -0.620571 0.753391 -0.21747
1 5.67023 2.87679 2.87679 0.237103 -0.971386 0.0138007
1 0.0416742 5.75358 5.06014e-15 0.2576 -0.949059 -0.181463
1 1.39672 4.31519 1.4384 -0.0850999 -0.588604 -0.80393
1 8.54703 5.75358 2.87679 -0.880973 -0.102634 -0.461901
1 2.91847 5.75358 8.63038 -0.0562169 0.75459 -0.653784
1 1.52174 7.19198 1.4384 0.745291 0.657544 -0.110351
1 2.79344 5.75358 2.87679 0.830336 0.274642 -0.484885
1 4.27351 4.31519 1.4384 -0.0479241 -0.370347 -0.927656
1 5.79526 5.75358 8.63038 0.0612954 0.653786 -0.754193
1 4.39854 7.19198 1.4384 0.0535865 -0.897361 0.438032
1 7.1503 4.31519 1.4384 -0.336159 -0.896385 0.288949
1 5.67023 5.75358 2.87679 -0.737331 -0.669117 -0.0928723
1 7.27533 7.19198 1.4384 -0.213787 0.473406 0.854507
1 0.0416742 8.63038 5.75358 -0.000998056 0.99768 0.0680637
1 1.39672 1.4384 4.31519 0.00876964 -0.0270035 0.999597
1 8.54703 2.87679 5.75358 -0.413696 -0.139922 -0.899598
1 2.91847 8.63038 5.75358 0.43404 0.691166 0.57784
1 1.52174 1.4384 7.19198 -0.579133 -0.813134 0.0584686
1 2.79344 2.87679 5.75358 0.161751 0.850509 0.500471
1 4.27351 1.4384 4.31519 0.925771 0.228228 0.30143
1 5.79526 2.45231e-18 5.75358 -0.989902 0.0747073 -0.120471
1 4.39854 1.4384 7.19198 -0.983681 -0.167689 -0.0652091
1 7.1503 1.4384 4.31519 -0.402618 0.535247 -0.742569
1 5.67023 2.87679 5.75358 0.416528 -0.541232 -0.730461
1 7.27533 1.4384 7.19198 -0.998027 -0.0585578 0.0226305
1 1.2717 4.31519 4.31519 -0.214973 -0.974927 0.0574871
1 8.54703 5.75358 5.75358 0.869355 -0.311479 0.38367
1 1.39672 4.31519 7.19198 0.190786 0.00470145 -0.98162
1 1.39672 7.19198 4.31519 0.904903 -0.250313 -0.344228
1 2.79344 5.75358 5.75358 0.367849 -0.929885 -0.000842586
1 1.52174 7.19198 7.19198 0.880332 -0.43705 0.184398
1 4.14849 4.31519 4.31519 -0.110666 0.112598 -0.987459
1 4.27351 4.31519 7.19198 0.81313 0.570937 0.113361
1 4.27351 7.19198 4.31519 -0.681546 -0.604633 -0.412207
1 7.02528 4.31519 4.31519 -0.854935 0.0376596 -0.517366
1 5.67023 5.75358 5.75358 -0.0909541 0.855047 -0.510511
1 4.39854 7.19198 7.19198 0.424775 0.306239 -0.851929
1 7.1503 4.31519 7.19198 -0.194972 -0.0503058 -0.979518
1 7.1503 7.19198 4.31519 0.361436 -0.0445616 0.931331
1 7.27533 7.19198 7.19198 0.126875 0.205629 0.970371
ITEM: TIMESTEP
400
ITEM: NUMBER OF ATOMS
54
ITEM: BOX BOUNDS pp pp pp
0.0000000000000000e+00 8.6303750400000006e+00
0.0000000000000000e+00 8.6303750400000006e+00
0.0000000000000000e+00 8.6303750400000006e+00
ITEM: ATOMS type x y z c_outsp[1] c_outsp[2] c_outsp[3]
1 0.209583 8.63038 5.12961e-14 0.746075 -0.0969523 -0.658766
1 0.0523958 2.10314e-14 2.87679 -0.309514 0.204743 -0.928591
1 0.0523958 2.87679 1.92888e-14 0.55882 0.0715486 -0.826197
1 3.08637 8.63038 1.29197e-14 0.0601786 -0.887042 0.45775
1 1.54319 1.4384 1.4384 -0.309141 -0.733063 -0.605847
1 8.52558 2.87679 2.87679 -0.252499 0.0243888 -0.96729
1 2.92919 1.57116e-14 2.87679 -0.906767 0.199494 0.371451
1 2.92919 2.87679 8.63038 0.98038 0.117749 -0.158082
1 2.772 2.87679 2.87679 -0.648522 -0.286159 0.705359
1 5.96317 8.63038 1.44966e-14 0.392576 -0.911691 -0.121259
1 4.41998 1.4384 1.4384 0.669667 0.573364 -0.472017
1 5.80598 2.74496e-14 2.87679 -0.123331 -0.624336 0.771359
1 5.80598 2.87679 8.63038 -0.0225339 -0.391499 -0.919903
1 7.29677 1.4384 1.4384 0.536131 0.774446 -0.335853
1 5.64879 2.87679 2.87679 -0.792994 -0.449448 0.411286
1 0.0523958 5.75358 6.36197e-15 -0.265415 -0.769182 -0.581304
1 1.386 4.31519 1.4384 -0.404678 -0.167276 -0.89903
1 8.52558 5.75358 2.87679 -0.639337 -0.0843999 -0.764281
1 2.92919 5.75358 8.63038 0.757453 0.30042 0.579665
1 1.54319 7.19198 1.4384 0.822848 0.0407589 0.566798
1 2.772 5.75358 2.87679 0.757123 -0.587791 0.285072
1 4.26279 4.31519 1.4384 0.0404014 0.046665 -0.998093
1 5.80598 5.75358 8.63038 0.55039 0.584282 -0.596393
1 4.41998 7.19198 1.4384 -0.108455 -0.972536 0.205939
1 7.13958 4.31519 1.4384 -0.643373 0.648031 0.407587
1 5.64879 5.75358 2.87679 -0.918049 -0.370052 -0.142294
1 7.29677 7.19198 1.4384 -0.476459 0.662818 0.577632
1 0.0523958 8.63038 5.75358 -0.282329 0.906364 0.314318
1 1.386 1.4384 4.31519 0.488664 0.386826 0.782032
1 8.52558 2.87679 5.75358 -0.752169 -0.146227 -0.642541
1 2.92919 8.63038 5.75358 0.253937 0.706939 0.660116
1 1.54319 1.4384 7.19198 -0.656878 -0.742968 0.12849
1 2.772 2.87679 5.75358 0.221438 0.727238 0.649685
1 4.26279 1.4384 4.31519 0.661719 0.748419 -0.0446989
1 5.80598 3.08322e-18 5.75358 -0.963511 0.0798961 0.255466
1 4.41998 1.4384 7.19198 -0.990219 0.121073 -0.0693329
1 7.13958 1.4384 4.31519 -0.315288 -0.0922766 -0.944499
1 5.64879 2.87679 5.75358 -0.752529 -0.540358 -0.376448
1 7.29677 1.4384 7.19198 -0.388407 0.897874 -0.207275
1 1.22881 4.31519 4.31519 -0.855782 -0.501788 -0.12588
1 8.52558 5.75358 5.75358 0.29347 -0.835966 0.463719
1 1.386 4.31519 7.19198 0.619829 0.098879 -0.778482
1 1.386 7.19198 4.31519 0.927318 -0.104805 -0.359301
1 2.772 5.75358 5.75358 -0.21227 -0.268284 -0.939662
1 1.54319 7.19198 7.19198 0.839443 -0.522263 -0.150259
1 4.1056 4.31519 4.31519 0.59074 -0.0984027 -0.800839
1 4.26279 4.31519 7.19198 0.467096 -0.629456 -0.620972
1 4.26279 7.19198 4.31519 -0.651284 -0.587023 -0.480867
1 6.9824 4.31519 4.31519 -0.256905 -0.025508 -0.9661
1 5.64879 5.75358 5.75358 0.753957 0.532447 -0.384771
1 4.41998 7.19198 7.19198 0.541449 0.549405 -0.636386
1 7.13958 4.31519 7.19198 0.130983 0.29283 -0.94715
1 7.13958 7.19198 4.31519 0.408429 0.443844 0.797614
1 7.29677 7.19198 7.19198 0.228109 -0.294052 0.92817
ITEM: TIMESTEP
500
ITEM: NUMBER OF ATOMS
54
ITEM: BOX BOUNDS pp pp pp
0.0000000000000000e+00 8.6303750400000006e+00
0.0000000000000000e+00 8.6303750400000006e+00
0.0000000000000000e+00 8.6303750400000006e+00
ITEM: ATOMS type x y z c_outsp[1] c_outsp[2] c_outsp[3]
1 0.242391 8.63038 5.93259e-14 0.929523 -0.208508 -0.304157
1 0.0605977 2.43236e-14 2.87679 -0.584179 0.489836 -0.647145
1 0.0605977 2.87679 2.23082e-14 0.128567 -0.277628 -0.952047
1 3.11918 8.63038 1.49421e-14 -0.086215 -0.993183 -0.0784539
1 1.55959 1.4384 1.4384 -0.348163 -0.406007 -0.84495
1 8.50918 2.87679 2.87679 -0.51492 -0.0958553 -0.851862
1 2.93739 1.81711e-14 2.87679 -0.997097 0.0624937 0.0435032
1 2.93739 2.87679 8.63038 0.396379 -0.87368 0.282075
1 2.7556 2.87679 2.87679 -0.63065 0.209009 0.747393
1 5.99597 8.63038 1.67659e-14 0.264286 -0.775051 -0.573976
1 4.43638 1.4384 1.4384 0.883814 0.451699 -0.121824
1 5.81418 3.17466e-14 2.87679 -0.0688659 -0.251374 0.965437
1 5.81418 2.87679 8.63038 -0.523701 0.603953 -0.600814
1 7.31317 1.4384 1.4384 0.911519 -0.250057 -0.326505
1 5.63239 2.87679 2.87679 -0.575078 0.522136 0.62981
1 0.0605977 5.75358 7.35786e-15 -0.254855 0.109429 -0.960767
1 1.3778 4.31519 1.4384 0.275498 -0.123659 -0.953315
1 8.50918 5.75358 2.87679 -0.788822 -0.0259276 -0.614075
1 2.93739 5.75358 8.63038 -0.104801 -0.916128 0.386945
1 1.55959 7.19198 1.4384 0.000991551 -0.12029 0.992738
1 2.7556 5.75358 2.87679 -0.207289 -0.728732 0.652673
1 4.25459 4.31519 1.4384 0.498253 0.125943 -0.857836
1 5.81418 5.75358 8.63038 0.911187 0.228395 -0.34289
1 4.43638 7.19198 1.4384 0.0929583 -0.984351 0.149707
1 7.13138 4.31519 1.4384 0.871872 0.468908 -0.141298
1 5.63239 5.75358 2.87679 -0.933833 0.0506989 -0.354099
1 7.31317 7.19198 1.4384 -0.254402 0.814439 0.521507
1 0.0605977 8.63038 5.75358 -0.238521 0.7174 0.654557
1 1.3778 1.4384 4.31519 0.839739 0.517226 -0.165277
1 8.50918 2.87679 5.75358 -0.54859 0.475564 -0.687668
1 2.93739 8.63038 5.75358 0.578585 0.559069 0.59387
1 1.55959 1.4384 7.19198 -0.793173 -0.565282 -0.226568
1 2.7556 2.87679 5.75358 0.704865 0.448496 0.549561
1 4.25459 1.4384 4.31519 -0.140016 0.498384 -0.855575
1 5.81418 3.56586e-18 5.75358 -0.710793 0.228481 0.66526
1 4.43638 1.4384 7.19198 -0.926921 0.371814 -0.0507184
1 7.13138 1.4384 4.31519 -0.801963 -0.589746 -0.0951565
1 5.63239 2.87679 5.75358 -0.719123 0.658633 -0.221504
1 7.31317 1.4384 7.19198 0.443266 0.543135 -0.713105
1 1.19601 4.31519 4.31519 -0.859937 0.228346 -0.456471
1 8.50918 5.75358 5.75358 -0.569608 -0.821073 0.0372426
1 1.3778 4.31519 7.19198 0.734681 -0.593734 -0.328213
1 1.3778 7.19198 4.31519 0.872051 -0.205526 -0.444169
1 2.7556 5.75358 5.75358 0.529518 0.673954 -0.515166
1 1.55959 7.19198 7.19198 0.91942 -0.376472 -0.113734
1 4.0728 4.31519 4.31519 0.487487 -0.707891 -0.511124
1 4.25459 4.31519 7.19198 -0.0886304 0.0646956 -0.993961
1 4.25459 7.19198 4.31519 -0.558586 -0.653379 -0.510957
1 6.94959 4.31519 4.31519 -0.473977 -0.679511 -0.560009
1 5.63239 5.75358 5.75358 0.911722 -0.390716 -0.1269
1 4.43638 7.19198 7.19198 0.75352 0.64135 0.144488
1 7.13138 4.31519 7.19198 0.422802 -0.221412 -0.878758
1 7.13138 7.19198 4.31519 0.260099 0.92307 0.283354
1 7.31317 7.19198 7.19198 0.0801099 -0.831456 0.549785
ITEM: TIMESTEP
600
ITEM: NUMBER OF ATOMS
54
ITEM: BOX BOUNDS pp pp pp
0.0000000000000000e+00 8.6303750400000006e+00
0.0000000000000000e+00 8.6303750400000006e+00
0.0000000000000000e+00 8.6303750400000006e+00
ITEM: ATOMS type x y z c_outsp[1] c_outsp[2] c_outsp[3]
1 0.263542 8.63038 6.45028e-14 0.637222 -0.769908 -0.0344884
1 0.0658855 2.64461e-14 2.87679 -0.54601 0.676247 -0.494533
1 0.0658855 2.87679 2.42549e-14 0.515941 -0.289519 -0.806216
1 3.14033 8.63038 1.6246e-14 0.0842781 -0.968931 -0.232529
1 1.57017 1.4384 1.4384 -0.243819 -0.393612 -0.886353
1 8.4986 2.87679 2.87679 -0.273406 0.18513 -0.943915
1 2.94268 1.97567e-14 2.87679 -0.846404 0.338011 -0.41152
1 2.94268 2.87679 8.63038 -0.755359 -0.643184 0.12549
1 2.74502 2.87679 2.87679 -0.203564 0.691739 0.692862
1 6.01713 8.63038 1.82289e-14 0.470892 -0.14111 -0.870832
1 4.44696 1.4384 1.4384 0.909573 0.393985 -0.132108
1 5.81947 3.45168e-14 2.87679 0.0804739 0.203658 0.975729
1 5.81947 2.87679 8.63038 0.679981 0.692023 0.242343
1 7.32375 1.4384 1.4384 0.280179 -0.667932 -0.689468
1 5.62181 2.87679 2.87679 -0.0668471 0.776644 0.626383
1 0.0658855 5.75358 7.99992e-15 0.740654 0.482637 -0.467434
1 1.37251 4.31519 1.4384 0.176254 -0.860761 -0.47752
1 8.4986 5.75358 2.87679 -0.814931 0.416606 -0.402898
1 2.94268 5.75358 8.63038 -0.300185 -0.713633 -0.632943
1 1.57017 7.19198 1.4384 -0.564626 0.452779 0.690064
1 2.74502 5.75358 2.87679 -0.934649 -0.12152 0.334163
1 4.2493 4.31519 1.4384 0.752025 -0.0125817 -0.659014
1 5.81947 5.75358 8.63038 0.928676 -0.359325 -0.0919066
1 4.44696 7.19198 1.4384 -0.0926674 -0.932543 0.348965
1 7.12609 4.31519 1.4384 0.427639 -0.665953 -0.611255
1 5.62181 5.75358 2.87679 -0.54586 0.325123 -0.772225
1 7.32375 7.19198 1.4384 0.226468 0.702415 0.674778
1 0.0658855 8.63038 5.75358 0.0372262 0.478017 0.877561
1 1.37251 1.4384 4.31519 0.487619 -0.132635 -0.862923
1 8.4986 2.87679 5.75358 0.193223 0.29148 -0.936859
1 2.94268 8.63038 5.75358 0.715647 0.278135 0.640696
1 1.57017 1.4384 7.19198 -0.63137 0.157461 -0.759327
1 2.74502 2.87679 5.75358 0.842196 -0.349025 0.410958
1 4.2493 1.4384 4.31519 -0.815761 -0.224281 -0.533134
1 5.81947 3.87702e-18 5.75358 -0.569323 0.384284 0.726771
1 4.44696 1.4384 7.19198 -0.740255 0.577868 0.343644
1 7.12609 1.4384 4.31519 -0.398443 -0.0657609 0.914833
1 5.62181 2.87679 5.75358 -0.134733 0.769656 -0.624081
1 7.32375 1.4384 7.19198 0.427231 0.0589948 -0.902216
1 1.17485 4.31519 4.31519 -0.422107 0.528231 -0.736748
1 8.4986 5.75358 5.75358 -0.937761 0.0267422 -0.34625
1 1.37251 4.31519 7.19198 -0.233167 -0.859741 -0.454399
1 1.37251 7.19198 4.31519 0.552964 -0.557451 -0.619257
1 2.74502 5.75358 5.75358 0.782591 0.238323 0.575111
1 1.57017 7.19198 7.19198 0.933199 -0.320306 0.162924
1 4.05165 4.31519 4.31519 0.187882 -0.90007 -0.393161
1 4.2493 4.31519 7.19198 0.282123 0.763287 -0.581206
1 4.2493 7.19198 4.31519 -0.284483 -0.836067 -0.469107
1 6.92844 4.31519 4.31519 -0.99142 0.0413347 0.124008
1 5.62181 5.75358 5.75358 0.405951 -0.909208 0.0924378
1 4.44696 7.19198 7.19198 0.22094 0.162567 0.961643
1 7.12609 4.31519 7.19198 -0.0451689 -0.111016 -0.992792
1 7.12609 7.19198 4.31519 0.0273024 0.700633 -0.712999
1 7.32375 7.19198 7.19198 -0.21405 -0.968013 -0.130894
ITEM: TIMESTEP
700
ITEM: NUMBER OF ATOMS
54
ITEM: BOX BOUNDS pp pp pp
0.0000000000000000e+00 8.6303750400000006e+00
0.0000000000000000e+00 8.6303750400000006e+00
0.0000000000000000e+00 8.6303750400000006e+00
ITEM: ATOMS type x y z c_outsp[1] c_outsp[2] c_outsp[3]
1 0.27202 8.63038 6.65778e-14 -0.14429 -0.909624 -0.389569
1 0.0680051 2.72969e-14 2.87679 -0.0494547 0.835072 -0.547913
1 0.0680051 2.87679 2.50352e-14 -0.379497 -0.744693 -0.549012
1 3.14881 8.63038 1.67686e-14 0.0897514 -0.993815 -0.0653943
1 1.57441 1.4384 1.4384 -0.526601 -0.32067 -0.787313
1 8.49436 2.87679 2.87679 -0.178984 0.0299474 -0.983396
1 2.9448 2.03923e-14 2.87679 -0.354293 0.372298 -0.857829
1 2.9448 2.87679 8.63038 -0.945993 0.276988 -0.168446
1 2.74078 2.87679 2.87679 0.437321 0.70313 0.560677
1 6.0256 8.63038 1.88153e-14 0.853488 0.236267 -0.464475
1 4.4512 1.4384 1.4384 0.910981 0.394629 -0.119921
1 5.82159 3.56272e-14 2.87679 0.266356 0.253363 0.929979
1 5.82159 2.87679 8.63038 0.711099 -0.702918 -0.0156135
1 7.32799 1.4384 1.4384 -0.0537522 0.0116077 -0.998487
1 5.61757 2.87679 2.87679 0.421931 0.445026 0.78989
1 0.0680051 5.75358 8.25727e-15 0.907443 -0.303108 0.290985
1 1.37039 4.31519 1.4384 -0.826572 -0.56233 -0.0237578
1 8.49436 5.75358 2.87679 -0.287183 0.846221 -0.448816
1 2.9448 5.75358 8.63038 0.202859 -0.548993 -0.810836
1 1.57441 7.19198 1.4384 -0.197926 0.953407 0.227684
1 2.74078 5.75358 2.87679 -0.700908 0.626193 -0.341482
1 4.24718 4.31519 1.4384 0.77177 -0.290772 -0.565529
1 5.82159 5.75358 8.63038 0.55688 -0.825111 -0.0952701
1 4.4512 7.19198 1.4384 -0.59224 -0.802147 0.0762428
1 7.12397 4.31519 1.4384 -0.142053 -0.172389 -0.974732
1 5.61757 5.75358 2.87679 0.0428367 0.364075 -0.930384
1 7.32799 7.19198 1.4384 0.644253 0.0590329 0.762531
1 0.0680051 8.63038 5.75358 0.167042 0.13211 0.977059
1 1.37039 1.4384 4.31519 -0.0951769 -0.292397 -0.951549
1 8.49436 2.87679 5.75358 -0.116935 -0.0340855 -0.992554
1 2.9448 8.63038 5.75358 0.171037 0.444179 0.879461
1 1.57441 1.4384 7.19198 0.28064 0.468209 -0.837867
1 2.74078 2.87679 5.75358 0.281905 -0.788457 0.546686
1 4.24718 1.4384 4.31519 -0.645178 -0.762319 -0.0511403
1 5.82159 4.00175e-18 5.75358 -0.760952 0.431338 0.484665
1 4.4512 1.4384 7.19198 -0.597921 0.510925 0.617613
1 7.12397 1.4384 4.31519 0.558292 0.228377 0.797592
1 5.61757 2.87679 5.75358 -0.309593 0.692776 -0.651317
1 7.32799 1.4384 7.19198 0.491425 0.0242263 -0.870583
1 1.16638 4.31519 4.31519 -0.14774 0.285733 -0.946852
1 8.49436 5.75358 5.75358 -0.33723 0.784197 -0.520876
1 1.37039 4.31519 7.19198 -0.518744 -0.222342 -0.825511
1 1.37039 7.19198 4.31519 -0.0818043 -0.917901 -0.388286
1 2.74078 5.75358 5.75358 -0.00370793 -0.13695 0.990571
1 1.57441 7.19198 7.19198 0.760469 -0.288759 0.58164
1 4.04317 4.31519 4.31519 0.14876 -0.900769 -0.408027
1 4.24718 4.31519 7.19198 0.606246 0.788799 0.101299
1 4.24718 7.19198 4.31519 0.0798847 -0.996583 0.0209853
1 6.91996 4.31519 4.31519 0.0507687 0.976234 0.210688
1 5.61757 5.75358 5.75358 -0.144017 -0.916261 0.373798
1 4.4512 7.19198 7.19198 -0.627768 -0.419806 0.655493
1 7.12397 4.31519 7.19198 0.454339 0.287672 -0.843102
1 7.12397 7.19198 4.31519 -0.493835 0.0788776 -0.865971
1 7.32799 7.19198 7.19198 -0.207439 -0.667776 -0.714874
ITEM: TIMESTEP
800
ITEM: NUMBER OF ATOMS
54
ITEM: BOX BOUNDS pp pp pp
0.0000000000000000e+00 8.6303750400000006e+00
0.0000000000000000e+00 8.6303750400000006e+00
0.0000000000000000e+00 8.6303750400000006e+00
ITEM: ATOMS type x y z c_outsp[1] c_outsp[2] c_outsp[3]
1 0.267417 8.63038 6.54513e-14 -0.472193 -0.232573 -0.850261
1 0.0668543 2.6835e-14 2.87679 0.50319 0.522292 -0.688484
1 0.0668543 2.87679 2.46115e-14 -0.621435 0.525375 -0.581206
1 3.14421 8.63038 1.64849e-14 -0.122895 -0.974495 0.187764
1 1.5721 1.4384 1.4384 -0.818269 0.378436 -0.432691
1 8.49667 2.87679 2.87679 -0.543218 0.495538 -0.677758
1 2.94365 2.00472e-14 2.87679 0.0553444 0.153367 -0.986618
1 2.94365 2.87679 8.63038 -0.60136 0.779972 -0.173234
1 2.74308 2.87679 2.87679 0.78249 0.219051 0.58286
1 6.021 8.63038 1.8497e-14 0.928527 -0.190544 0.318639
1 4.4489 1.4384 1.4384 0.893267 0.323547 0.312075
1 5.82044 3.50244e-14 2.87679 0.0631963 -0.193795 0.979004
1 5.82044 2.87679 8.63038 -0.319269 -0.592488 -0.739611
1 7.32569 1.4384 1.4384 0.281361 0.408275 -0.868417
1 5.61987 2.87679 2.87679 0.335855 -0.760022 0.556388
1 0.0668543 5.75358 8.11755e-15 0.203327 -0.915477 0.347218
1 1.37154 4.31519 1.4384 -0.628831 0.641917 0.438764
1 8.49667 5.75358 2.87679 0.300488 0.774018 -0.557318
1 2.94365 5.75358 8.63038 0.42653 -0.683207 -0.592706
1 1.5721 7.19198 1.4384 0.632398 0.76208 0.138945
1 2.74308 5.75358 2.87679 0.0296693 0.812943 -0.581586
1 4.24833 4.31519 1.4384 0.521606 -0.492771 -0.696494
1 5.82044 5.75358 8.63038 -0.0134212 -0.89177 -0.452289
1 4.4489 7.19198 1.4384 -0.674884 -0.199866 -0.710341
1 7.12512 4.31519 1.4384 0.326583 0.29119 -0.899195
1 5.61987 5.75358 2.87679 0.746012 0.361761 -0.559102
1 7.32569 7.19198 1.4384 0.271569 -0.844293 0.461973
1 0.0668543 8.63038 5.75358 -0.0311297 -0.0298526 0.999069
1 1.37154 1.4384 4.31519 -0.442966 -0.205039 -0.872778
1 8.49667 2.87679 5.75358 0.03335 0.571014 -0.820263
1 2.94365 8.63038 5.75358 -0.796664 0.569685 0.201956
1 1.5721 1.4384 7.19198 0.607364 -0.328545 -0.723303
1 2.74308 2.87679 5.75358 -0.237757 -0.566381 0.789103
1 4.24833 1.4384 4.31519 -0.0131983 -0.999785 0.0159959
1 5.82044 3.93403e-18 5.75358 -0.964396 0.256516 -0.0643441
1 4.4489 1.4384 7.19198 -0.592875 0.648992 0.476768
1 7.12512 1.4384 4.31519 0.952104 -0.0616728 0.29949
1 5.61987 2.87679 5.75358 -0.253185 0.926214 -0.279329
1 7.32569 1.4384 7.19198 0.235187 -0.423843 -0.874668
1 1.17098 4.31519 4.31519 -0.500906 0.211411 -0.839285
1 8.49667 5.75358 5.75358 0.564498 0.65421 -0.50334
1 1.37154 4.31519 7.19198 -0.518154 -0.103067 -0.849054
1 1.37154 7.19198 4.31519 -0.501884 -0.838819 0.210938
1 2.74308 5.75358 5.75358 -0.722671 0.0117357 0.691093
1 1.5721 7.19198 7.19198 0.235797 -0.128871 0.96322
1 4.04777 4.31519 4.31519 0.384844 -0.685019 -0.618582
1 4.24833 4.31519 7.19198 0.594791 0.702228 0.39128
1 4.24833 7.19198 4.31519 -0.0045358 -0.557948 0.829864
1 6.92456 4.31519 4.31519 0.980101 0.14247 -0.13822
1 5.61987 5.75358 5.75358 -0.625542 -0.746159 0.227914
1 4.4489 7.19198 7.19198 -0.674562 -0.725456 0.136673
1 7.12512 4.31519 7.19198 0.631696 -0.46172 -0.622716
1 7.12512 7.19198 4.31519 -0.793056 0.114678 -0.598256
1 7.32569 7.19198 7.19198 0.368108 -0.405512 -0.836694
ITEM: TIMESTEP
900
ITEM: NUMBER OF ATOMS
54
ITEM: BOX BOUNDS pp pp pp
0.0000000000000000e+00 8.6303750400000006e+00
0.0000000000000000e+00 8.6303750400000006e+00
0.0000000000000000e+00 8.6303750400000006e+00
ITEM: ATOMS type x y z c_outsp[1] c_outsp[2] c_outsp[3]
1 0.249955 8.63038 6.11772e-14 -0.0496082 0.243679 -0.968586
1 0.0624887 2.50827e-14 2.87679 0.593725 0.0453827 -0.803387
1 0.0624887 2.87679 2.30044e-14 0.337822 0.643683 -0.686694
1 3.12675 8.63038 1.54084e-14 -0.223554 -0.874777 0.429872
1 1.56337 1.4384 1.4384 -0.20142 0.924586 0.323374
1 8.5054 2.87679 2.87679 0.227363 0.965926 0.123668
1 2.93928 1.87381e-14 2.87679 0.13266 0.176877 -0.975252
1 2.93928 2.87679 8.63038 -0.404252 0.903753 0.140753
1 2.75181 2.87679 2.87679 0.919252 -0.262661 0.293233
1 6.00354 8.63038 1.72891e-14 0.121208 -0.469462 0.874594
1 4.44016 1.4384 1.4384 0.725098 0.184993 0.663333
1 5.81607 3.27372e-14 2.87679 -0.544798 -0.475948 0.690411
1 5.81607 2.87679 8.63038 -0.56942 0.477364 -0.669241
1 7.31696 1.4384 1.4384 0.498379 0.249879 -0.830168