ITEM: TIMESTEP
10000
ITEM: NUMBER OF ATOMS
54
ITEM: BOX BOUNDS pp pp pp
0.0000000000000000e+00 8.6303750400000006e+00
0.0000000000000000e+00 8.6303750400000006e+00
0.0000000000000000e+00 8.6303750400000006e+00
ITEM: ATOMS c_outsp[1] c_outsp[2] c_outsp[3]
-0.314296 -0.752723 0.578469
0.88929 -0.430559 0.154216
-0.109644 -0.802643 -0.586295
0.545978 -0.18986 -0.816003
0.701231 0.681468 0.209466
-0.391939 -0.637971 0.662855
-0.970974 0.185505 -0.150988
0.750909 0.514671 -0.413824
-0.303508 0.931625 0.199893
0.110525 0.669712 0.73435
0.70248 -0.535951 0.468272
0.115078 0.246767 0.962218
0.440753 -0.306573 -0.843653
-0.549607 -0.267028 -0.791599
0.556431 -0.816645 0.153215
-0.652833 -0.018013 -0.757288
0.909716 0.358364 0.209743
-0.451289 -0.525286 -0.721397
-0.114073 0.138861 -0.98372
-0.586572 -0.0831801 -0.805614
-0.226047 -0.932273 0.282436
-0.960637 0.268064 -0.0729267
0.608464 0.725466 -0.321669
-0.262765 0.957701 -0.117315
0.643517 -0.40738 0.648018
0.134008 -0.923569 -0.359252
-0.797119 0.603771 -0.00787148
-0.0990356 0.819942 -0.563815
-0.969318 0.152226 -0.193003
-0.644898 -0.738334 0.197408
0.862095 -0.241197 0.445663
0.102299 -0.667065 0.737943
0.0464261 0.967489 -0.248616
0.252455 -0.907242 -0.336421
-0.541924 0.382157 -0.748515
-0.363015 0.907409 -0.211728
-0.192796 0.102813 0.975838
0.901082 0.00567593 -0.433612
-0.679819 -0.69398 -0.237148
-0.0333133 -0.872488 -0.4875
0.202433 -0.92481 -0.3221
-0.516918 0.389986 -0.762041
0.936784 0.345372 0.0561656
0.680865 -0.173766 0.711498
0.0210235 -0.479323 -0.877387
-0.582388 -0.311349 -0.750924
0.887134 0.289107 -0.359737
0.404038 -0.714466 -0.571219
0.0723906 0.673787 -0.735371
-0.65414 0.599413 -0.461307
0.448909 -0.0536388 -0.891966
0.889156 -0.457596 -0.0028285
-0.935521 0.352302 0.0261343
-0.511043 0.61515 -0.600355
