ITEM: TIMESTEP
2500
ITEM: NUMBER OF ATOMS
54
ITEM: BOX BOUNDS pp pp pp
0.0000000000000000e+00 8.6303750400000006e+00
0.0000000000000000e+00 8.6303750400000006e+00
0.0000000000000000e+00 8.6303750400000006e+00
ITEM: ATOMS c_outsp[1] c_outsp[2] c_outsp[3]
0.968797 0.219757 -0.114625
-0.998083 -0.0616475 -0.0055367
-0.590911 -0.735797 -0.330798
-0.292251 -0.591925 0.751142
-0.0242763 -0.649935 -0.759602
0.236631 -0.557131 -0.795997
0.207045 0.436977 -0.875319
0.308894 -0.387232 0.868698
0.713647 -0.58699 -0.382296
-0.257095 -0.950937 0.172109
-0.077363 -0.932338 -0.353216
0.412774 0.545208 -0.729634
0.435344 0.899756 0.0302464
-0.933659 0.321158 -0.158551
-0.276195 -0.147386 -0.949733
-0.771927 0.0643117 0.63245
0.618526 0.463164 -0.634748
-0.0280573 0.594605 -0.803528
-0.980423 0.0220644 0.195662
-0.029487 0.356313 -0.933901
-0.466903 0.414841 -0.780966
-0.585739 0.750671 0.305618
0.9651 -0.0374703 -0.259188
0.443808 0.169303 -0.879983
0.0291095 -0.619783 -0.784233
-0.195679 -0.83245 0.518399
-0.521569 -0.0336503 -0.852545
-0.301099 -0.649694 0.698023
-0.879532 0.441996 -0.17625
0.00110219 0.961778 -0.273827
0.906391 0.407732 0.1105
0.577044 0.205266 -0.790497
0.101457 -0.922798 -0.371687
0.533157 0.692612 -0.485831
-0.0908875 -0.856323 -0.508381
0.474777 -0.302652 0.826431
0.810829 0.00714166 0.58524
0.627959 0.354204 -0.69297
-0.539554 -0.593852 -0.596842
-0.451186 -0.89044 0.0595686
-0.0188089 0.989148 -0.145712
-0.693947 -0.714907 -0.0856994
-0.63371 0.755382 -0.166759
-0.73417 0.0779557 -0.674475
-0.833682 -0.142775 0.533469
-0.229833 -0.300462 0.925689
0.306191 -0.894972 0.324456
0.273771 0.959875 -0.0607468
0.715762 -0.674257 0.18183
0.981792 -0.0822826 -0.171214
0.96215 0.101775 0.252804
-0.714543 -0.0448625 0.698152
0.787285 0.494878 -0.367803
0.151239 0.507034 -0.848553
ITEM: TIMESTEP
2505
ITEM: NUMBER OF ATOMS
54
ITEM: BOX BOUNDS pp pp pp
0.0000000000000000e+00 8.6303750400000006e+00
0.0000000000000000e+00 8.6303750400000006e+00
0.0000000000000000e+00 8.6303750400000006e+00
ITEM: ATOMS c_outsp[1] c_outsp[2] c_outsp[3]
0.97892 0.175496 -0.10448
-0.997677 -0.0618616 -0.0285389
-0.618158 -0.713775 -0.32925
-0.310555 -0.573496 0.758062
-0.0300643 -0.661857 -0.749027
0.2169 -0.564734 -0.79626
0.221966 0.447455 -0.866323
0.281204 -0.407684 0.868745
0.717594 -0.612033 -0.332378
-0.257497 -0.958763 0.120287
-0.0841901 -0.920214 -0.382255
0.412837 0.525872 -0.743656
0.484734 0.874259 0.026529
-0.917474 0.345268 -0.197561
-0.298114 -0.11925 -0.947052
-0.754942 0.10659 0.647072
0.632187 0.414025 -0.654922
-0.041182 0.567564 -0.822299
-0.976315 0.0706351 0.2045
-0.018591 0.364448 -0.931038
-0.45645 0.459003 -0.762214
-0.562886 0.75169 0.343689
0.973227 -0.0639742 -0.220763
0.448319 0.167483 -0.878043
0.00805193 -0.585552 -0.810595
-0.224581 -0.832272 0.506841
-0.52791 -0.00307034 -0.849294
-0.309225 -0.639286 0.704055
-0.872398 0.446725 -0.198391
0.0476684 0.960225 -0.275128
0.917209 0.378199 0.125275
0.581167 0.191542 -0.790921
0.0517122 -0.923585 -0.379889
0.583067 0.676219 -0.450289
-0.134953 -0.838098 -0.528564
0.444865 -0.312347 0.839366
0.812921 -0.000347687 0.582373
0.649478 0.313877 -0.692574
-0.552812 -0.57369 -0.604382
-0.468847 -0.882258 0.0424787
-0.00353962 0.989372 -0.145361
-0.717603 -0.690355 -0.0919518
-0.614749 0.770001 -0.170826
-0.709501 0.0708169 -0.701137
-0.825322 -0.125097 0.550631
-0.248155 -0.288011 0.924915
0.298689 -0.889754 0.345142
0.281543 0.955292 -0.0902859
0.702821 -0.677042 0.218303
0.981694 -0.078009 -0.173756
0.960934 0.0584291 0.270541
-0.730308 -0.0739304 0.679106
0.796383 0.490502 -0.35381
0.177915 0.519317 -0.835857
ITEM: TIMESTEP
2510
ITEM: NUMBER OF ATOMS
54
ITEM: BOX BOUNDS pp pp pp
0.0000000000000000e+00 8.6303750400000006e+00
0.0000000000000000e+00 8.6303750400000006e+00
0.0000000000000000e+00 8.6303750400000006e+00
ITEM: ATOMS c_outsp[1] c_outsp[2] c_outsp[3]
0.986781 0.1312 -0.0951274
-0.99671 -0.062726 -0.0513297
-0.645315 -0.689612 -0.32864
-0.328804 -0.555536 0.76372
-0.0362985 -0.672518 -0.73919
0.196233 -0.572132 -0.79634
0.237317 0.457802 -0.856795
0.252239 -0.427087 0.868316
0.717683 -0.636609 -0.28224
-0.255028 -0.964448 0.069282
-0.0877713 -0.907526 -0.410723
0.411688 0.505874 -0.758027
0.532479 0.846153 0.0221563
-0.899419 0.367387 -0.236797
-0.318554 -0.0896753 -0.943654
-0.735899 0.147793 0.660765
0.642869 0.363969 -0.673978
-0.0563247 0.540803 -0.839262
-0.969778 0.120668 0.212059
-0.00724948 0.372237 -0.928109
-0.442414 0.502087 -0.743087
-0.539827 0.750229 0.381763
0.978882 -0.0915745 -0.182767
0.452688 0.166679 -0.875952
-0.00979764 -0.549018 -0.835753
-0.252521 -0.831125 0.495444
-0.533439 0.0268268 -0.845413
-0.317116 -0.628884 0.709889
-0.865086 0.450873 -0.219862
0.0948148 0.956588 -0.27559
0.926769 0.348499 0.140167
0.585699 0.178046 -0.790732
0.00227426 -0.92173 -0.387826
0.630416 0.657191 -0.41313
-0.178362 -0.817149 -0.548137
0.412405 -0.322024 0.852187
0.814676 -0.00812478 0.57986
0.667099 0.273169 -0.693078
-0.565079 -0.553421 -0.611891
-0.486419 -0.87335 0.0256267
0.0127547 0.989169 -0.146223
-0.740486 -0.66483 -0.0983939
-0.595069 0.784301 -0.175397
-0.684128 0.0620742 -0.726716
-0.816044 -0.107534 0.567899
-0.264652 -0.274819 0.924356
0.290929 -0.884237 0.365356
0.289973 0.949419 -0.120493
0.687894 -0.679682 0.254624
0.981431 -0.0727165 -0.177496
0.957552 0.0146903 0.287886
-0.745915 -0.101915 0.658197
0.805166 0.486063 -0.339781
0.204805 0.530172 -0.822784
ITEM: TIMESTEP
2515
ITEM: NUMBER OF ATOMS
54
ITEM: BOX BOUNDS pp pp pp
0.0000000000000000e+00 8.6303750400000006e+00
0.0000000000000000e+00 8.6303750400000006e+00
0.0000000000000000e+00 8.6303750400000006e+00
ITEM: ATOMS c_outsp[1] c_outsp[2] c_outsp[3]
0.992446 0.08696 -0.0865399
-0.995195 -0.0642196 -0.0739139
-0.672211 -0.663239 -0.329009
-0.34708 -0.538057 0.768134
-0.04285 -0.681952 -0.730141
0.174584 -0.579254 -0.796232
0.253081 0.467967 -0.846733
0.222064 -0.445382 0.867365
0.713988 -0.660545 -0.232167
-0.249638 -0.968143 0.0194853
-0.0881247 -0.894448 -0.438402
0.40929 0.485254 -0.772664
0.578429 0.815553 0.0171329
-0.879578 0.387453 -0.276084
-0.337402 -0.0587937 -0.939523
-0.714901 0.187848 0.67352
0.65046 0.313282 -0.691922
-0.0734538 0.51447 -0.854357
-0.960633 0.171903 0.21825
0.00450858 0.379635 -0.925125
-0.424866 0.543853 -0.72368
-0.51664 0.746287 0.419689
0.982057 -0.120131 -0.145369
0.457006 0.166853 -0.873674
-0.0244189 -0.510476 -0.859545
-0.279502 -0.829127 0.484177
-0.53822 0.0559876 -0.840943
-0.3248 -0.618455 0.715555
-0.857617 0.454507 -0.240657
0.142401 0.950791 -0.275171
0.935061 0.318721 0.155172
0.590675 0.164762 -0.789909
-0.0466927 -0.917256 -0.395552
0.674995 0.635708 -0.374509
-0.220942 -0.793528 -0.567008
0.377401 -0.33158 0.864652
0.816057 -0.0161726 0.577745
0.680864 0.23242 -0.694554
-0.57637 -0.533069 -0.619383
-0.503919 -0.863703 0.00905739
0.0301294 0.988492 -0.148245
-0.762564 -0.638334 -0.105001
-0.574667 0.798244 -0.180453
-0.658141 0.0517926 -0.751111
-0.805838 -0.0901365 0.585235
-0.279311 -0.260981 0.924053
0.282935 -0.878457 0.385046
0.298907 0.942219 -0.151257
0.671044 -0.682098 0.290591
0.980983 -0.0664426 -0.182368
0.951985 -0.0293526 0.304734
-0.76125 -0.128763 0.635545
0.813656 0.481541 -0.325702
0.231833 0.539557 -0.809402
ITEM: TIMESTEP
2520
ITEM: NUMBER OF ATOMS
54
ITEM: BOX BOUNDS pp pp pp
0.0000000000000000e+00 8.6303750400000006e+00
0.0000000000000000e+00 8.6303750400000006e+00
0.0000000000000000e+00 8.6303750400000006e+00
ITEM: ATOMS c_outsp[1] c_outsp[2] c_outsp[3]
0.995978 0.0428541 -0.0786849
-0.993141 -0.06632 -0.0962918
-0.698654 -0.634601 -0.330399
-0.36546 -0.521066 0.771316
-0.0495931 -0.690201 -0.721916
0.151912 -0.586021 -0.795929
0.269237 0.4779 -0.836136
0.190749 -0.462515 0.865849
0.706613 -0.683679 -0.182434
-0.241324 -0.97002 -0.0287206
-0.0852962 -0.881151 -0.465077
0.405615 0.464062 -0.787479
0.622441 0.782582 0.0114704
-0.858052 0.405416 -0.315253
-0.354557 -0.0267424 -0.934652
-0.692052 0.226694 0.685327
0.654877 0.262264 -0.708769
-0.0925233 0.48871 -0.867526
-0.948721 0.224056 0.222996
0.0166487 0.386596 -0.922099
-0.403889 0.584066 -0.704088
-0.493405 0.739874 0.457315
0.982764 -0.149504 -0.108734
0.461352 0.16796 -0.871174
-0.0358191 -0.470218 -0.881823
-0.30554 -0.826386 0.473003
-0.542318 0.0843661 -0.835927
-0.332297 -0.607962 0.721083
-0.850006 0.457696 -0.260775
0.190276 0.94277 -0.273824
0.942076 0.288953 0.170292
0.596129 0.151665 -0.788434
-0.0950272 -0.910199 -0.403122
0.716621 0.611967 -0.334591
-0.262523 -0.767307 -0.585083
0.339875 -0.3409 0.876511
0.817033 -0.0244714 0.576071
0.690841 0.191952 -0.697061
-0.586701 -0.512653 -0.626872
-0.521361 -0.853306 -0.0071814
0.0486346 0.987281 -0.151363
-0.783806 -0.610869 -0.111744
-0.553543 0.81179 -0.185975
-0.631631 0.0400498 -0.774234
-0.794698 -0.0729545 0.602605
-0.292126 -0.246595 0.924042
0.274729 -0.872452 0.404168
0.308182 0.933664 -0.182468
0.652352 -0.684217 0.326012
0.980325 -0.0592247 -0.188298
0.944223 -0.0736101 0.320975
-0.776205 -0.154434 0.611274
0.82188 0.476914 -0.311555
0.25892 0.547437 -0.795784
ITEM: TIMESTEP
2525
ITEM: NUMBER OF ATOMS
54
ITEM: BOX BOUNDS pp pp pp
0.0000000000000000e+00 8.6303750400000006e+00
0.0000000000000000e+00 8.6303750400000006e+00
0.0000000000000000e+00 8.6303750400000006e+00
ITEM: ATOMS c_outsp[1] c_outsp[2] c_outsp[3]
0.997438 -0.00105446 -0.0715237
-0.990559 -0.0690035 -0.118458
-0.724435 -0.603659 -0.332851
-0.384015 -0.504558 0.773275
-0.0564064 -0.697311 -0.714546
0.128179 -0.592342 -0.795426
0.285761 0.487554 -0.825004
0.158371 -0.478437 0.863723
0.695689 -0.705865 -0.133305
-0.230122 -0.97027 -0.0749658
-0.0793586 -0.867798 -0.490539
0.400634 0.442351 -0.802383
0.664385 0.747373 0.00518787
-0.834954 0.421237 -0.354134
-0.369929 0.00633711 -0.929038
-0.667454 0.264284 0.696174
0.656063 0.211227 -0.724544
-0.113472 0.463663 -0.878716
-0.93391 0.276821 0.226234
0.029131 0.393076 -0.919044
-0.379581 0.622502 -0.684404
-0.470207 0.731019 0.494486
0.981034 -0.179557 -0.0730218
0.4658 0.169947 -0.868417
-0.0440303 -0.428534 -0.902452
-0.330663 -0.822999 0.461882
-0.545795 0.111923 -0.83041
-0.339624 -0.597362 0.726508
-0.842264 0.46051 -0.280218
0.238283 0.932472 -0.271509
0.947816 0.25928 0.185525
0.602087 0.138726 -0.786287
-0.142571 -0.900604 -0.410592
0.755132 0.58618 -0.293545
-0.302938 -0.738579 -0.602271
0.299871 -0.349852 0.887514
0.817571 -0.0329993 0.574882
0.697121 0.152078 -0.700639
-0.596089 -0.492189 -0.634372
-0.538752 -0.842149 -0.0230387
0.0683139 0.98547 -0.155508
-0.804175 -0.582442 -0.118594
-0.531698 0.824896 -0.191947
-0.604688 0.0269359 -0.796007
-0.782621 -0.0560428 0.619971
-0.303098 -0.231751 0.92435
0.266334 -0.866261 0.42268
0.317623 0.923747 -0.214025
0.63192 -0.68598 0.360707
0.97943 -0.0511001 -0.195206
0.934265 -0.117993 0.336493
-0.79068 -0.178893 0.58551
0.829863 0.472155 -0.297317
0.285987 0.553783 -0.782008
ITEM: TIMESTEP
2530
ITEM: NUMBER OF ATOMS
54
ITEM: BOX BOUNDS pp pp pp
0.0000000000000000e+00 8.6303750400000006e+00
0.0000000000000000e+00 8.6303750400000006e+00
0.0000000000000000e+00 8.6303750400000006e+00
ITEM: ATOMS c_outsp[1] c_outsp[2] c_outsp[3]
0.996882 -0.0447146 -0.0650122
-0.987455 -0.0722454 -0.140401
-0.749323 -0.570394 -0.336401
-0.402807 -0.488525 0.774009
-0.0631729 -0.703332 -0.708049
0.103353 -0.598115 -0.794718
0.302626 0.496883 -0.813342
0.125011 -0.493101 0.860944
0.681376 -0.726978 -0.0850279
-0.216115 -0.969101 -0.118899
-0.0704104 -0.854545 -0.514583
0.394325 0.420183 -0.817285
0.704138 0.710061 -0.00168903
-0.810407 0.434892 -0.392568
-0.383438 0.0403004 -0.922687
-0.641208 0.300581 0.706047
0.653993 0.160488 -0.739281
-0.136224 0.43946 -0.887873
-0.916099 0.329875 0.227914
0.0419103 0.399036 -0.915977
-0.352056 0.658943 -0.664719
-0.447132 0.719766 0.531046
0.976914 -0.210156 -0.0383829
0.47041 0.172757 -0.865372
-0.0491061 -0.385708 -0.921313
-0.354912 -0.819051 0.45077
-0.548712 0.138627 -0.824438
-0.34679 -0.58661 0.731865
-0.834395 0.463022 -0.29899
0.286256 0.919855 -0.268189
0.952287 0.229787 0.200867
0.60857 0.125907 -0.783448
-0.189169 -0.888525 -0.418017
0.790395 0.558571 -0.251545
-0.342029 -0.707457 -0.618483
0.257459 -0.358294 0.897407
0.817641 -0.0417313 0.574214
0.699816 0.11309 -0.705315
-0.604549 -0.471687 -0.641898
-0.556097 -0.830227 -0.0384608
0.0892026 0.982981 -0.160599
-0.823633 -0.553059 -0.125518
-0.509138 0.837516 -0.198355
-0.5774 0.0125513 -0.816365
-0.769607 -0.0394583 0.637297
-0.312233 -0.216537 0.924999
0.257766 -0.859927 0.440547
0.327049 0.912474 -0.245826
0.609863 -0.687334 0.394511
0.978271 -0.042106 -0.203008
0.922119 -0.162412 0.351167
-0.804585 -0.20212 0.558382
0.83763 0.467235 -0.282963
0.312955 0.558571 -0.768152
ITEM: TIMESTEP
2535
ITEM: NUMBER OF ATOMS
54
ITEM: BOX BOUNDS pp pp pp
0.0000000000000000e+00 8.6303750400000006e+00
0.0000000000000000e+00 8.6303750400000006e+00
0.0000000000000000e+00 8.6303750400000006e+00
ITEM: ATOMS c_outsp[1] c_outsp[2] c_outsp[3]
0.994358 -0.0880865 -0.059102
-0.983841 -0.0760203 -0.162105
-0.773074 -0.534808 -0.341082
-0.421894 -0.47295 0.773514
-0.0697806 -0.708316 -0.702438
0.077413 -0.603228 -0.793803
0.319801 0.505844 -0.801155
0.0907539 -0.506466 0.857471
0.663851 -0.746907 -0.0378336
-0.199428 -0.96673 -0.160193
-0.0585741 -0.841536 -0.537016
0.386668 0.397627 -0.832094
0.74159 0.670791 -0.00912763
-0.784546 0.446369 -0.430398
-0.395014 0.0750017 -0.915608
-0.61341 0.335558 0.714933
0.648672 0.110369 -0.753023
-0.16069 0.416225 -0.89495
-0.89522 0.382879 0.228004
0.0549362 0.404437 -0.912914
-0.321438 0.693178 -0.645122
-0.42427 0.706175 0.566843
0.97047 -0.241171 -0.00495927
0.475238 0.176327 -0.862008
-0.0511189 -0.342016 -0.938303
-0.378333 -0.814617 0.439618
-0.551129 0.16445 -0.818054
-0.353795 -0.575656 0.73719
-0.826402 0.465304 -0.317099
0.33402 0.90489 -0.263828
0.955502 0.200557 0.216315
0.615591 0.113167 -0.779898
-0.234673 -0.874026 -0.425449
0.822299 0.529377 -0.208768
-0.379647 -0.674073 -0.633635
0.212731 -0.366074 0.905944
0.817215 -0.05064 0.574104
0.699053 0.0752645 -0.711098
-0.612096 -0.451156 -0.64946
-0.573396 -0.817537 -0.0533915
0.111326 0.979728 -0.16655
-0.842139 -0.522733 -0.132482
-0.485872 0.849604 -0.205187
-0.549853 -0.002994 -0.835256
-0.755662 -0.0232596 0.654548
-0.319544 -0.201036 0.926
0.249041 -0.853495 0.457739
0.336273 0.899866 -0.277779
0.586309 -0.688243 0.427274
0.97682 -0.0322799 -0.211616
0.907805 -0.206778 0.364873
-0.817838 -0.2241 0.530019
0.845207 0.462116 -0.268467
0.339747 0.561788 -0.754299
ITEM: TIMESTEP
2540
ITEM: NUMBER OF ATOMS
54
ITEM: BOX BOUNDS pp pp pp
0.0000000000000000e+00 8.6303750400000006e+00
0.0000000000000000e+00 8.6303750400000006e+00
0.0000000000000000e+00 8.6303750400000006e+00
ITEM: ATOMS c_outsp[1] c_outsp[2] c_outsp[3]
0.989906 -0.13114 -0.0537408
-0.979725 -0.0803017 -0.183547
-0.795429 -0.496928 -0.346923
-0.441321 -0.457813 0.771779
-0.0761228 -0.71232 -0.697714
0.0503436 -0.607561 -0.792676
0.337252 0.514395 -0.788454
0.0556911 -0.518497 0.853264
0.643311 -0.765563 0.00806613
-0.180227 -0.963377 -0.19855
-0.0439949 -0.828906 -0.557655
0.377652 0.37476 -0.84672
0.776642 0.62971 -0.0170887
-0.757514 0.455672 -0.467479
-0.404599 0.110295 -0.907818
-0.584152 0.369194 0.722815
0.640138 0.0611872 -0.76582
-0.186766 0.394074 -0.899903
-0.871238 0.435488 0.226484
0.0681542 0.409247 -0.909874
-0.287869 0.725006 -0.625698
-0.40171 0.690326 0.60173
0.961781 -0.272475 0.027117
0.480329 0.180593 -0.858295
-0.0501565 -0.297727 -0.953333
-0.400982 -0.809756 0.428378
-0.5531 0.189373 -0.811306
-0.360634 -0.564449 0.742523
-0.818282 0.467428 -0.334551
0.3814 0.887561 -0.258398
0.957482 0.171667 0.231861
0.623155 0.100462 -0.775619
-0.278938 -0.857179 -0.432941
0.850765 0.498842 -0.165392
-0.415655 -0.638579 -0.647648
0.165808 -0.373031 0.912883
0.816265 -0.0596953 0.574585
0.694975 0.0388557 -0.717984
-0.618744 -0.430598 -0.65707
-0.590644 -0.804081 -0.0677729
0.134699 0.97562 -0.173269
-0.859651 -0.49148 -0.13945
-0.461909 0.861111 -0.212432
-0.522128 -0.0195825 -0.852643
-0.740796 -0.00750594 0.671689
-0.325049 -0.18533 0.92736
0.240172 -0.847008 0.474231
0.345108 0.885962 -0.309792
0.561397 -0.688678 0.458864
0.975048 -0.0216596 -0.220937
0.891349 -0.251004 0.377484
-0.83037 -0.244826 0.500546
0.852617 0.456761 -0.253798
0.366283 0.563426 -0.740533
ITEM: TIMESTEP
2545
ITEM: NUMBER OF ATOMS
54
ITEM: BOX BOUNDS pp pp pp
0.0000000000000000e+00 8.6303750400000006e+00
0.0000000000000000e+00 8.6303750400000006e+00
0.0000000000000000e+00 8.6303750400000006e+00
ITEM: ATOMS c_outsp[1] c_outsp[2] c_outsp[3]
0.983558 -0.173855 -0.0488735
-0.975122 -0.0850625 -0.204698
-0.816119 -0.456808 -0.353944
-0.461126 -0.443091 0.768787
-0.082098 -0.715403 -0.693872
0.0221432 -0.61098 -0.791336
0.354943 0.522498 -0.775249
0.0199169 -0.529165 0.848285
0.619964 -0.782873 0.0524796
-0.158718 -0.959266 -0.233702
-0.0268386 -0.816778 -0.576327
0.367268 0.351666 -0.861072
0.809206 0.58697 -0.0255265
-0.729463 0.462817 -0.503671
-0.412142 0.146034 -0.89934
-0.553523 0.401474 0.729679
0.628461 0.013257 -0.777728
-0.214334 0.373109 -0.902691
-0.844155 0.487355 0.223354
0.0815056 0.413438 -0.906877
-0.251502 0.754235 -0.606528
-0.379542 0.672314 0.635564
0.950938 -0.30395 0.0577248
0.48572 0.185489 -0.854207
-0.0463196 -0.253098 -0.966331
-0.422922 -0.804518 0.416999
-0.554679 0.21338 -0.804239
-0.367291 -0.552938 0.747902
-0.81003 0.469466 -0.351359
0.428213 0.867868 -0.251872
0.958249 0.143193 0.247497
0.63126 0.0877414 -0.770592
-0.321826 -0.838065 -0.440539
0.875741 0.467217 -0.121596
-0.449929 -0.601144 -0.660446
0.116837 -0.379 0.917991
0.814766 -0.0688638 0.575686
0.687736 0.00409881 -0.72595
-0.624506 -0.410015 -0.664741
-0.607831 -0.789868 -0.0815452
0.159324 0.970556 -0.180655
-0.876125 -0.459322 -0.146383
-0.437266 0.871988 -0.22008
-0.494303 -0.0370911 -0.868498
-0.725022 0.00774277 0.688682
-0.32877 -0.169495 0.929076
0.231165 -0.840512 0.490003
0.353367 0.870814 -0.341781
0.53527 -0.688626 0.489163
0.972929 -0.0102833 -0.230876
0.872786 -0.295002 0.388867
-0.842119 -0.264297 0.470088
0.859885 0.451125 -0.238924
0.392486 0.563485 -0.726939
ITEM: TIMESTEP
2550
ITEM: NUMBER OF ATOMS
54
ITEM: BOX BOUNDS pp pp pp
0.0000000000000000e+00 8.6303750400000006e+00
0.0000000000000000e+00 8.6303750400000006e+00
0.0000000000000000e+00 8.6303750400000006e+00
ITEM: ATOMS c_outsp[1] c_outsp[2] c_outsp[3]
0.975334 -0.216214 -0.0444425
-0.970046 -0.0902745 -0.225525
-0.834866 -0.414534 -0.362162
-0.481333 -0.428759 0.764516
-0.0876109 -0.717625 -0.690897
-0.00717686 -0.613347 -0.789781
0.372838 0.530116 -0.761557
-0.016471 -0.538444 0.8425
0.594029 -0.798786 0.0952363
-0.135139 -0.954614 -0.265422
-0.00728924 -0.80526 -0.592877
0.355516 0.328438 -0.875064
0.839206 0.542725 -0.0343893
-0.700549 0.46784 -0.538848
-0.417602 0.182075 -0.890201
-0.521604 0.432386 0.735508
0.613741 -0.0331181 -0.788813
-0.243265 0.353424 -0.903279
-0.814012 0.538133 0.218626
0.0949286 0.416987 -0.903941
-0.212502 0.780681 -0.587691
-0.357855 0.652251 0.668213
0.938044 -0.335479 0.0867547
0.491442 0.190948 -0.84972
-0.0397186 -0.208376 -0.977242
-0.44422 -0.798935 0.405428
-0.555914 0.236461 -0.796897
-0.373746 -0.541069 0.753365
-0.801636 0.471487 -0.367533
0.474275 0.845822 -0.244231
0.957835 0.115207 0.263211
0.639893 0.074956 -0.7648
-0.363206 -0.816774 -0.448287
0.897203 0.434754 -0.0775557
-0.482363 -0.561951 -0.671966
0.0659919 -0.383815 0.921049
0.812694 -0.0781093 0.577432
0.677498 -0.0287928 -0.734961
-0.629392 -0.389403 -0.672482
-0.624946 -0.77491 -0.0946479
0.185188 0.964435 -0.188601
-0.891515 -0.426283 -0.153242
-0.411959 0.882185 -0.228124
-0.466452 -0.0553926 -0.882811
-0.70836 0.0224272 0.705495
-0.330733 -0.153607 0.931139
0.222026 -0.83405 0.50504
0.360867 0.854489 -0.373663
0.508072 -0.688084 0.518076
0.970439 0.00180989 -0.24134
0.852162 -0.338684 0.39889
-0.853037 -0.282518 0.438762
0.867029 0.445161 -0.223812
0.41828 0.561975 -0.713601
ITEM: TIMESTEP
2555
ITEM: NUMBER OF ATOMS
54
ITEM: BOX BOUNDS pp pp pp
0.0000000000000000e+00 8.6303750400000006e+00
0.0000000000000000e+00 8.6303750400000006e+00
0.0000000000000000e+00 8.6303750400000006e+00
ITEM: ATOMS c_outsp[1] c_outsp[2] c_outsp[3]
0.965245 -0.258207 -0.0403884
-0.964516 -0.0959089 -0.245987
-0.851389 -0.370221 -0.371582
-0.501957 -0.41479 0.758939
-0.0925719 -0.71905 -0.688765
-0.03759 -0.614513 -0.788011
0.390895 0.537215 -0.747396
-0.0533719 -0.546319 0.835875
0.565729 -0.813267 0.136187
-0.109762 -0.949632 -0.293517
0.0144526 -0.794448 -0.607161
0.342403 0.305174 -0.888611
0.866579 0.497129 -0.0436195
-0.670934 0.470788 -0.572893
-0.420944 0.218275 -0.880433
-0.488473 0.46192 0.740287
0.596109 -0.0776478 -0.79914
-0.273417 0.3351 -0.901638
-0.780883 0.587484 0.212331
0.108359 0.419877 -0.901089
-0.171051 0.804169 -0.569257
-0.336734 0.630268 0.699552
0.923214 -0.366954 0.114109
0.497517 0.196903 -0.844812
-0.0304717 -0.163797 -0.986023
-0.464945 -0.793029 0.393613
-0.556851 0.258609 -0.789328
-0.379968 -0.528789 0.758951
-0.793086 0.473561 -0.383085
0.519402 0.821449 -0.235463
0.956275 0.087775 0.278987
0.649032 0.0620539 -0.758226
-0.402953 -0.793403 -0.456225
0.915157 0.401707 -0.0334436
-0.512864 -0.521197 -0.682147
0.0134746 -0.387309 0.921852
0.810026 -0.0873924 0.579845
0.664432 -0.0596272 -0.744966
-0.633411 -0.368755 -0.680302
-0.641969 -0.759225 -0.10702
0.212265 0.95715 -0.196996
-0.905775 -0.392397 -0.159987
-0.386008 0.89165 -0.236555
-0.438642 -0.074358 -0.89558
-0.690835 0.0364888 0.722091
-0.330971 -0.137735 0.933535
0.212755 -0.827665 0.519332
0.367428 0.837066 -0.40536
0.47995 -0.687062 0.545521
0.967557 0.0145802 -0.252231
0.829527 -0.381963 0.407419
-0.863083 -0.299498 0.40668
0.874069 0.438818 -0.208427
0.443588 0.558913 -0.700604
ITEM: TIMESTEP
2560
ITEM: NUMBER OF ATOMS
54
ITEM: BOX BOUNDS pp pp pp
0.0000000000000000e+00 8.6303750400000006e+00
0.0000000000000000e+00 8.6303750400000006e+00
0.0000000000000000e+00 8.6303750400000006e+00
ITEM: ATOMS c_outsp[1] c_outsp[2] c_outsp[3]
0.95329 -0.299826 -0.0366509
-0.958557 -0.101936 -0.266041
-0.865409 -0.324019 -0.382202
-0.523001 -0.401159 0.752025
-0.0968978 -0.719742 -0.687446
-0.0690527 -0.614325 -0.786025
0.409074 0.543761 -0.732791
-0.0906827 -0.552778 0.82838
0.53529 -0.826298 0.175203
-0.082884 -0.944515 -0.317839
0.0381723 -0.784421 -0.619053
0.327943 0.281982 -0.901632
0.891273 0.45034 -0.0531541
-0.640781 0.471725 -0.605703
-0.422142 0.254494 -0.870074
-0.454202 0.490066 0.744
0.575724 -0.120059 -0.808781
-0.30464 0.318206 -0.897741
-0.744879 0.635083 0.204512
0.12173 0.422097 -0.898341
-0.127341 0.824534 -0.551296
-0.31626 0.606509 0.72947
0.906566 -0.398272 0.139704
0.503961 0.203289 -0.839462
-0.0187025 -0.119585 -0.992648
-0.485169 -0.786808 0.381502
-0.557533 0.27982 -0.781574
-0.385919 -0.516049 0.764696
-0.784367 0.475754 -0.398028
0.563411 0.79479 -0.225559
0.95361 0.0609589 0.294808
0.658648 0.0489835 -0.750855
-0.440952 -0.768053 -0.464388
0.929636 0.368328 0.0105728
-0.541362 -0.479091 -0.690941
-0.0404869 -0.389319 0.920213
0.806744 -0.0966703 0.582941
0.648711 -0.088234 -0.755903
-0.636569 -0.348062 -0.68821
-0.658881 -0.742839 -0.118602
0.240514 0.948594 -0.205725
-0.918859 -0.357702 -0.166577
-0.359437 0.900332 -0.24537
-0.410938 -0.0938584 -0.906819
-0.672474 0.0498707 0.738439
-0.329518 -0.121949 0.936241
0.20335 -0.821399 0.532872
0.372882 0.818638 -0.436797
0.451046 -0.685579 0.571436
0.964266 0.0279868 -0.263454
0.804942 -0.424748 0.414316
-0.872227 -0.31525 0.373949
0.881018 0.432042 -0.192734
0.468336 0.554326 -0.688029
ITEM: TIMESTEP
2565
ITEM: NUMBER OF ATOMS
54
ITEM: BOX BOUNDS pp pp pp
0.0000000000000000e+00 8.6303750400000006e+00
0.0000000000000000e+00 8.6303750400000006e+00
0.0000000000000000e+00 8.6303750400000006e+00
ITEM: ATOMS c_outsp[1] c_outsp[2] c_outsp[3]
0.939455 -0.341062 -0.0331688
-0.952195 -0.108324 -0.285639
-0.876652 -0.276112 -0.39401
-0.544455 -0.387841 0.743739
-0.100512 -0.719767 -0.6869
-0.101503 -0.612628 -0.783827
0.427333 0.549726 -0.717766
-0.128299 -0.557818 0.819987
0.502936 -0.837875 0.212179
-0.0548233 -0.939447 -0.338281
0.0636437 -0.775246 -0.628445
0.312159 0.258975 -0.914051
0.913249 0.402513 -0.0629249
-0.610252 0.470729 -0.637187
-0.421178 0.290593 -0.859165
-0.418859 0.516814 0.746633
0.552771 -0.160098 -0.81781
-0.336771 0.302795 -0.891572
-0.706143 0.680623 0.195228
0.134975 0.423643 -0.895717
-0.0815775 0.841623 -0.533869
-0.29651 0.581132 0.757871
0.888229 -0.429335 0.163467
0.510786 0.210042 -0.833655
-0.00453824 -0.0759539 -0.997101
-0.504963 -0.780268 0.369045
-0.557996 0.300096 -0.773681
-0.391555 -0.5028 0.770634
-0.77546 0.478132 -0.412374
0.606119 0.765899 -0.214519
0.949886 0.0348152 0.310652
0.6687 0.0356943 -0.742675
-0.477095 -0.740836 -0.472803
0.940699 0.334863 0.0543331
-0.567804 -0.435849 -0.698308
-0.0956399 -0.38969 0.915967
0.802827 -0.105897 0.586732
0.630511 -0.114464 -0.767694
-0.638869 -0.327314 -0.696212
-0.675656 -0.725783 -0.129332
0.269877 0.938661 -0.214667
-0.93072 -0.322244 -0.17297
-0.332274 0.908181 -0.254562
-0.383398 -0.113766 -0.91655
-0.653312 0.062518 0.754503
-0.326413 -0.106315 0.939229
0.193806 -0.815289 0.545658
0.377067 0.799306 -0.4679
0.421495 -0.683663 0.595774
0.960551 0.0419883 -0.274915
0.778476 -0.46695 0.419445
-0.880447 -0.329787 0.340666
0.887887 0.424775 -0.176698
0.492451 0.548249 -0.675955
ITEM: TIMESTEP
2570
ITEM: NUMBER OF ATOMS
54
ITEM: BOX BOUNDS pp pp pp
0.0000000000000000e+00 8.6303750400000006e+00
0.0000000000000000e+00 8.6303750400000006e+00
0.0000000000000000e+00 8.6303750400000006e+00
ITEM: ATOMS c_outsp[1] c_outsp[2] c_outsp[3]
0.923719 -0.381903 -0.0298813
-0.945466 -0.11504 -0.30473
-0.884853 -0.226716 -0.406983
-0.566296 -0.374817 0.734044
-0.103344 -0.719193 -0.687082
-0.13486 -0.609261 -0.781418
0.445628 0.555081 -0.702354
-0.166115 -0.561443 0.810671
0.468887 -0.848012 0.247025
-0.0259138 -0.934592 -0.354777
0.0906309 -0.766974 -0.635246
0.295083 0.236271 -0.925798
0.932477 0.353805 -0.0728595
-0.579509 0.467892 -0.667268
-0.418037 0.326437 -0.847752
-0.382509 0.542151 0.748171
0.527455 -0.197535 -0.8263
-0.369641 0.288909 -0.883118
-0.664851 0.72382 0.184551
0.148026 0.424518 -0.893237
-0.033978 0.85529 -0.517035
-0.277553 0.554308 0.78467
0.868333 -0.460052 0.185339
0.517996 0.217101 -0.827373
0.0118911 -0.0331037 -0.999381
-0.5244 -0.773389 0.356195
-0.558278 0.319438 -0.765693
-0.396824 -0.488997 0.776796
-0.766344 0.480757 -0.426134
0.647349 0.734843 -0.202349
0.945153 0.00939494 0.326493
0.679137 0.0221375 -0.733677
-0.511285 -0.711865 -0.481494
0.948433 0.30155 0.0976849
-0.592159 -0.391693 -0.704219
-0.151708 -0.388275 0.90897
0.798261 -0.115022 0.591226
0.610009 -0.13819 -0.780252
-0.640312 -0.306496 -0.704315
-0.692269 -0.708096 -0.139154
0.300279 0.927249 -0.223701
-0.941316 -0.286075 -0.179123
-0.304547 0.915143 -0.26413
-0.356074 -0.133958 -0.924806
-0.633386 0.0743786 0.770253
-0.3217 -0.0908952 0.942469
0.184112 -0.809372 0.557691
0.379836 0.779181 -0.498599
0.391426 -0.68135 0.618504
0.956403 0.0565423 -0.286524
0.750203 -0.508473 0.42267
-0.88773 -0.343125 0.306921
0.894683 0.416955 -0.160285
0.515861 0.540725 -0.664458
ITEM: TIMESTEP
2575
ITEM: NUMBER OF ATOMS
54
ITEM: BOX BOUNDS pp pp pp
0.0000000000000000e+00 8.6303750400000006e+00
0.0000000000000000e+00 8.6303750400000006e+00
0.0000000000000000e+00 8.6303750400000006e+00
ITEM: ATOMS c_outsp[1] c_outsp[2] c_outsp[3]
0.906046 -0.422335 -0.0267279
-0.938407 -0.12205 -0.323259
-0.889764 -0.176082 -0.421089
-0.588489 -0.362068 0.722902
-0.105331 -0.718087 -0.687936
-0.169021 -0.604068 -0.778803
0.463915 0.559802 -0.686589
-0.204025 -0.563663 0.800411
0.433354 -0.85673 0.279674
0.00350059 -0.930093 -0.367308
0.118891 -0.759642 -0.639382
0.276756 0.213994 -0.93681
0.948942 0.304368 -0.0828809
-0.548708 0.463317 -0.695886
-0.412715 0.361892 -0.835883
-0.345212 0.56606 0.748602
0.500004 -0.232166 -0.834323
-0.403073 0.276574 -0.872375
-0.621203 0.764414 0.172563
0.160819 0.424731 -0.890921
0.0152267 0.865403 -0.500845
-0.259451 0.526219 0.809802
0.847014 -0.490337 0.205274
0.525593 0.224407 -0.820605
0.0304544 0.00877529 -0.999498
-0.543545 -0.766144 0.342903
-0.558408 0.33785 -0.757653
-0.401668 -0.474598 0.783211
-0.756997 0.483687 -0.43932
0.686928 0.701702 -0.189061
0.939466 -0.015257 0.342302
0.689903 0.00826711 -0.723855
-0.543432 -0.68126 -0.490477
0.952948 0.268616 0.140485
-0.614415 -0.346846 -0.708656
-0.208394 -0.38494 0.899107
0.793033 -0.123993 0.596427
0.587381 -0.159302 -0.793478
-0.640897 -0.285593 -0.712522
-0.708688 -0.689821 -0.148012
0.33163 0.91426 -0.232703
-0.950605 -0.249254 -0.184996
-0.27629 0.921168 -0.274069
-0.329016 -0.154315 -0.931631
-0.61274 0.0854031 0.785657
-0.315426 -0.0757511 0.945922
0.174258 -0.803681 0.568973
0.381056 0.758383 -0.528822
0.360958 -0.678683 0.639608
0.951816 0.0716056 -0.298193
0.72021 -0.549221 0.423855
-0.894069 -0.355281 0.272794
0.901405 0.40852 -0.143462
0.538498 0.531806 -0.653607
ITEM: TIMESTEP
2580
ITEM: NUMBER OF ATOMS
54
ITEM: BOX BOUNDS pp pp pp
0.0000000000000000e+00 8.6303750400000006e+00
0.0000000000000000e+00 8.6303750400000006e+00
0.0000000000000000e+00 8.6303750400000006e+00
ITEM: ATOMS c_outsp[1] c_outsp[2] c_outsp[3]
0.885672 -0.46365 -0.0247862
-0.930539 -0.130815 -0.342031
-0.891601 -0.122789 -0.435855
-0.610527 -0.35127 0.709836
-0.106419 -0.716521 -0.6894
-0.203863 -0.5969 -0.775983
0.481618 0.565368 -0.669629
-0.241193 -0.563186 0.790346
0.396535 -0.864068 0.310076
0.0330725 -0.926069 -0.375903
0.148178 -0.75327 -0.640802
0.25722 0.19228 -0.94703
0.962643 0.254345 -0.0928804
-0.518003 0.457124 -0.722987
-0.405878 0.395708 -0.823819
-0.308247 0.588799 0.747195
0.471524 -0.262376 -0.841917
-0.437708 0.264339 -0.859381
-0.575419 0.802187 0.15934
0.173275 0.424292 -0.888793
0.0657962 0.87184 -0.485351
-0.242262 0.497047 0.833219
0.825062 -0.518981 0.223455
0.534778 0.231633 -0.812625
0.051031 0.0495163 -0.997469
-0.562456 -0.758501 0.329119
-0.558406 0.355325 -0.749618
-0.40605 -0.459564 0.789889
-0.747392 0.486985 -0.451941