ITEM: TIMESTEP
6500
ITEM: NUMBER OF ATOMS
54
ITEM: BOX BOUNDS pp pp pp
0.0000000000000000e+00 8.6303750400000006e+00
0.0000000000000000e+00 8.6303750400000006e+00
0.0000000000000000e+00 8.6303750400000006e+00
ITEM: ATOMS c_outsp[1] c_outsp[2] c_outsp[3]
-0.15093 -0.127446 -0.980295
0.585162 -0.0266581 -0.810478
-0.83785 0.0103315 -0.545803
0.9187 0.139833 0.369374
0.967322 -0.0949769 0.235093
0.159544 0.873623 -0.459705
0.949782 0.311226 -0.0324437
-0.258453 -0.0630106 0.963967
0.548377 0.347904 0.760424
0.615069 0.221599 0.756693
-0.091823 -0.963057 -0.253161
0.776581 0.0684854 -0.626284
0.0895172 -0.98298 0.160425
-0.507142 -0.61771 -0.601034
-0.373894 -0.261361 -0.889884
0.912989 -0.0660504 0.402601
-0.213399 0.686415 0.695194
-0.726587 -0.662067 0.183681
-0.519144 0.0860498 -0.850344
0.746381 0.66484 0.0300566
-0.359553 -0.520463 -0.774493
-0.902078 0.111419 -0.416943
0.645435 -0.571243 -0.507045
0.644128 -0.422548 -0.637614
0.853285 -0.437344 -0.283962
-0.912638 -0.354933 -0.202766
0.207677 -0.484876 -0.849568
-0.609566 0.785693 -0.105433
0.214585 -0.831898 -0.51176
-0.40537 -0.708466 0.577713
-0.903548 -0.335144 -0.266982
0.117285 0.84937 -0.514601
-0.452042 -0.595645 0.663977
-0.548754 -0.566816 0.614483
-0.754412 0.0447855 -0.654872
0.32497 -0.924582 0.198855
-0.388135 0.307323 -0.868852
-0.867943 0.375123 -0.325511
-0.106905 0.549092 -0.828897
-0.210163 0.808359 -0.549898
0.698639 0.41431 0.58331
0.93441 0.353396 -0.0445916
-0.905696 0.414626 -0.0883215
0.727677 -0.685881 -0.00731676
0.812146 0.0352458 0.582388
0.0564483 -0.817286 -0.57346
-0.213714 -0.648382 -0.730703
0.132199 -0.94648 0.294447
0.824673 0.562927 0.0550227
-0.70188 -0.0138403 -0.71216
-0.108165 0.993005 -0.0473344
0.387707 0.913153 -0.125834
-0.452444 0.589844 -0.668863
-0.968429 0.233113 0.0883329
ITEM: TIMESTEP
6505
ITEM: NUMBER OF ATOMS
54
ITEM: BOX BOUNDS pp pp pp
0.0000000000000000e+00 8.6303750400000006e+00
0.0000000000000000e+00 8.6303750400000006e+00
0.0000000000000000e+00 8.6303750400000006e+00
ITEM: ATOMS c_outsp[1] c_outsp[2] c_outsp[3]
-0.121664 -0.0961449 -0.987904
0.585166 0.00279752 -0.810908
-0.828715 0.0645075 -0.555941
0.91864 0.116895 0.377408
0.95075 -0.129578 0.281572
0.148553 0.887323 -0.436565
0.960399 0.276823 -0.0316782
-0.276724 -0.081753 0.957466
0.540635 0.323061 0.776753
0.621354 0.171141 0.764611
-0.103838 -0.955352 -0.276623
0.78675 0.0553319 -0.614787
0.0399712 -0.985539 0.164668
-0.515581 -0.60681 -0.604945
-0.344352 -0.225647 -0.911321
0.886183 -0.0970911 0.453049
-0.18105 0.700761 0.69004
-0.737137 -0.653972 0.170147
-0.502886 0.108499 -0.857516
0.752531 0.657319 0.0403523
-0.379636 -0.50487 -0.775231
-0.892868 0.178428 -0.413462
0.611387 -0.641495 -0.463345
0.650714 -0.442726 -0.6169
0.832061 -0.454424 -0.318078
-0.923196 -0.345285 -0.16878
0.214266 -0.447884 -0.868038
-0.576918 0.807901 -0.120259
0.213547 -0.856478 -0.469939
-0.42109 -0.731689 0.536017
-0.908059 -0.312948 -0.278373
0.108648 0.838176 -0.534469
-0.446903 -0.579141 0.681816
-0.56732 -0.522842 0.636227
-0.783219 0.0704174 -0.617745
0.294885 -0.933669 0.203235
-0.395317 0.297626 -0.86899
-0.85571 0.420062 -0.302172
-0.0999414 0.549001 -0.829825
-0.202937 0.799842 -0.564863
0.727181 0.385458 0.568005
0.942037 0.319789 -0.101496
-0.89792 0.412929 -0.152412
0.689944 -0.723436 0.0248536
0.812887 0.00859665 0.582357
0.0810344 -0.810592 -0.579977
-0.192509 -0.671295 -0.715753
0.11637 -0.9423 0.313894
0.841785 0.539206 0.0255968
-0.711568 0.0351412 -0.701738
-0.063777 0.994948 -0.0775294
0.417651 0.898074 -0.137955
-0.453033 0.584334 -0.673287
-0.961431 0.268521 0.0595591
ITEM: TIMESTEP
6510
ITEM: NUMBER OF ATOMS
54
ITEM: BOX BOUNDS pp pp pp
0.0000000000000000e+00 8.6303750400000006e+00
0.0000000000000000e+00 8.6303750400000006e+00
0.0000000000000000e+00 8.6303750400000006e+00
ITEM: ATOMS c_outsp[1] c_outsp[2] c_outsp[3]
-0.0911573 -0.0667276 -0.993598
0.585445 0.0319631 -0.810082
-0.81671 0.118042 -0.564846
0.918438 0.0942015 0.384184
0.930391 -0.165029 0.327319
0.136962 0.900582 -0.412544
0.97016 0.24044 -0.0312664
-0.295847 -0.0994818 0.950041
0.531946 0.299269 0.792131
0.626265 0.121433 0.770095
-0.115075 -0.947082 -0.299654
0.795768 0.0422157 -0.604129
-0.00993579 -0.985866 0.167239
-0.523676 -0.596069 -0.608658
-0.311725 -0.191284 -0.930719
0.856021 -0.126048 0.501337
-0.147315 0.7127 0.685825
-0.747379 -0.645748 0.156314
-0.485075 0.129439 -0.86484
0.758348 0.649924 0.0500742
-0.39865 -0.489097 -0.775798
-0.879445 0.244982 -0.408119
0.570661 -0.707069 -0.417612
0.655229 -0.463461 -0.596556
0.809057 -0.47003 -0.352844
-0.933039 -0.333551 -0.134844
0.221965 -0.409621 -0.88484
-0.543486 0.828233 -0.136575
0.210394 -0.879714 -0.426424
-0.437356 -0.75239 0.492574
-0.911407 -0.291954 -0.289999
0.100852 0.826802 -0.553377
-0.441498 -0.562558 0.699005
-0.585115 -0.476826 0.655955
-0.809555 0.0942591 -0.579427
0.264424 -0.941559 0.20868
-0.401604 0.288176 -0.869292
-0.84039 0.464207 -0.279743
-0.0937811 0.549321 -0.830332
-0.196397 0.791115 -0.579279
0.754723 0.354194 0.552214
0.945464 0.284825 -0.158027
-0.886654 0.408828 -0.216111
0.649273 -0.758601 0.0544906
0.812845 -0.0183587 0.58219
0.105889 -0.803975 -0.585159
-0.171974 -0.693149 -0.699978
0.0997013 -0.937652 0.332969
0.858055 0.513538 -0.00455537
-0.71759 0.0846507 -0.691302
-0.0191939 0.99395 -0.108141
0.448637 0.880906 -0.150765
-0.453931 0.579985 -0.676435
-0.95192 0.304665 0.0320584
ITEM: TIMESTEP
6515
ITEM: NUMBER OF ATOMS
54
ITEM: BOX BOUNDS pp pp pp
0.0000000000000000e+00 8.6303750400000006e+00
0.0000000000000000e+00 8.6303750400000006e+00
0.0000000000000000e+00 8.6303750400000006e+00
ITEM: ATOMS c_outsp[1] c_outsp[2] c_outsp[3]
-0.0596976 -0.0392398 -0.997445
0.586077 0.0608039 -0.807971
-0.801925 0.170752 -0.572503
0.918125 0.071774 0.389738
0.906161 -0.201219 0.372
0.124764 0.913316 -0.38767
0.978862 0.202133 -0.0311689
-0.315644 -0.116231 0.941732
0.522415 0.276554 0.806598
0.629917 0.0727241 0.773251
-0.125516 -0.938316 -0.322194
0.803667 0.0292566 -0.59436
-0.0599364 -0.983948 0.168087
-0.531434 -0.585511 -0.612172
-0.276225 -0.158426 -0.947946
0.822825 -0.152766 0.547377
-0.112369 0.722094 0.682608
-0.75731 -0.637393 0.142165
-0.465899 0.14874 -0.872247
0.763833 0.64269 0.0592376
-0.416683 -0.473212 -0.776173
-0.861801 0.31072 -0.400938
0.523742 -0.76728 -0.370103
0.657705 -0.48464 -0.57667
0.78421 -0.484086 -0.38817
-0.942105 -0.319717 -0.101091
0.23079 -0.370234 -0.899812
-0.509391 0.846583 -0.154331
0.205283 -0.901352 -0.381344
-0.453948 -0.770475 0.447547
-0.913656 -0.272217 -0.301878
0.0939059 0.815341 -0.571315
-0.435834 -0.545937 0.715543
-0.601963 -0.428871 0.67358
-0.833455 0.116249 -0.540222
0.2336 -0.948236 0.215127
-0.406993 0.278942 -0.869798
-0.822065 0.507404 -0.258361
-0.0883616 0.550192 -0.83035
-0.190499 0.782248 -0.593126
0.781033 0.320567 0.535933
0.944669 0.24873 -0.213854
-0.872009 0.402155 -0.279057
0.605963 -0.791317 0.081404
0.811959 -0.0456201 0.581929
0.130908 -0.797546 -0.588883
-0.152082 -0.713906 -0.683527
0.0821688 -0.932537 0.351601
0.873253 0.485984 -0.0353427
-0.719968 0.134398 -0.680869
0.0253994 0.989955 -0.139084
0.480446 0.861493 -0.164319
-0.455013 0.576886 -0.678355
-0.939864 0.341497 0.00601148
ITEM: TIMESTEP
6520
ITEM: NUMBER OF ATOMS
54
ITEM: BOX BOUNDS pp pp pp
0.0000000000000000e+00 8.6303750400000006e+00
0.0000000000000000e+00 8.6303750400000006e+00
0.0000000000000000e+00 8.6303750400000006e+00
ITEM: ATOMS c_outsp[1] c_outsp[2] c_outsp[3]
-0.0275652 -0.0136973 -0.999526
0.587137 0.0892851 -0.804548
-0.784462 0.222462 -0.578904
0.917723 0.0496335 0.394108
0.878007 -0.238013 0.415275
0.111951 0.925438 -0.361982
0.986296 0.161977 -0.031351
-0.335941 -0.132041 0.932582
0.512145 0.254928 0.820194
0.632433 0.0252445 0.774204
-0.135152 -0.929123 -0.344185
0.810486 0.0165647 -0.585524
-0.109754 -0.979799 0.167175
-0.538861 -0.575159 -0.615485
-0.23808 -0.127207 -0.962879
0.786915 -0.177107 0.591098
-0.0763964 0.728816 0.680434
-0.766924 -0.628908 0.127681
-0.445556 0.166295 -0.879674
0.768991 0.635647 0.0678566
-0.433828 -0.45727 -0.776336
-0.839961 0.375279 -0.391957
0.4712 -0.821507 -0.321086
0.658182 -0.506157 -0.557316
0.757465 -0.496504 -0.423946
-0.950334 -0.303788 -0.0676613
0.240748 -0.329884 -0.912807
-0.474761 0.86285 -0.173471
0.198382 -0.921158 -0.334833
-0.470642 -0.785881 0.401106
-0.914868 -0.253781 -0.314025
0.0878193 0.803878 -0.588276
-0.429918 -0.529318 0.731432
-0.617684 -0.379099 0.689021
-0.854977 0.136347 -0.500423
0.202421 -0.953684 0.222513
-0.411482 0.26989 -0.870541
-0.800827 0.549507 -0.238153
-0.0836034 0.551745 -0.829812
-0.185191 0.773306 -0.606384
0.805884 0.284653 0.519157
0.939674 0.211742 -0.26866
-0.85413 0.392762 -0.34088
0.560319 -0.821539 0.105432
0.810165 -0.0731785 0.581616
0.155974 -0.791417 -0.591043
-0.1328 -0.733539 -0.666547
0.0637529 -0.926955 0.369717
0.887154 0.456633 -0.0666657
-0.718746 0.184101 -0.670456
0.0698041 0.982921 -0.170273
0.512829 0.839692 -0.178671
-0.456145 0.575116 -0.679097
-0.925236 0.378946 -0.0184062
ITEM: TIMESTEP
6525
ITEM: NUMBER OF ATOMS
54
ITEM: BOX BOUNDS pp pp pp
0.0000000000000000e+00 8.6303750400000006e+00
0.0000000000000000e+00 8.6303750400000006e+00
0.0000000000000000e+00 8.6303750400000006e+00
ITEM: ATOMS c_outsp[1] c_outsp[2] c_outsp[3]
0.00496937 0.00991213 -0.999939
0.588699 0.117371 -0.799786
-0.764433 0.273005 -0.584047
0.917252 0.0278025 0.397335
0.845914 -0.275246 0.456804
0.0985087 0.936866 -0.335527
0.992257 0.120068 -0.0317829
-0.356567 -0.146964 0.922638
0.50124 0.23439 0.832958
0.63394 -0.0207979 0.773103
-0.14398 -0.919578 -0.365577
0.816269 0.00424015 -0.577657
-0.159109 -0.973464 0.164476
-0.545965 -0.565031 -0.618597
-0.197525 -0.0977429 -0.975413
0.748611 -0.198954 0.632455
-0.0395919 0.732754 0.679341
-0.776207 -0.620297 0.112847
-0.424255 0.182026 -0.887059
0.773833 0.62882 0.0759431
-0.450175 -0.441311 -0.776265
-0.813981 0.438295 -0.381226
0.413677 -0.869206 -0.270836
0.656708 -0.527908 -0.538561
0.728775 -0.507191 -0.460048
-0.957667 -0.285779 -0.0346954
0.251836 -0.288744 -0.923691
-0.439727 0.876945 -0.193928
0.189867 -0.938914 -0.287038
-0.487211 -0.79857 0.353429
-0.915102 -0.236681 -0.326452
0.0826028 0.792493 -0.604262
-0.423763 -0.512736 0.746677
-0.632098 -0.327657 0.702206
-0.874201 0.154541 -0.460315
0.170898 -0.957883 0.230769
-0.415075 0.260982 -0.871551
-0.776783 0.590376 -0.219236
-0.0794102 0.554093 -0.828658
-0.180419 0.764356 -0.619039
0.829052 0.24656 0.501878
0.930543 0.174103 -0.322145
-0.8332 0.380534 -0.401213
0.512647 -0.849239 0.126439
0.807397 -0.101016 0.581297
0.180963 -0.785699 -0.591548
-0.114088 -0.752029 -0.649181
0.0444405 -0.920907 0.387241
0.899542 0.425604 -0.0984173
-0.713986 0.233491 -0.66008
0.113809 0.972828 -0.201628
0.545504 0.815377 -0.193872
-0.457185 0.574737 -0.678719
-0.908016 0.416921 -0.0410261
ITEM: TIMESTEP
6530
ITEM: NUMBER OF ATOMS
54
ITEM: BOX BOUNDS pp pp pp
0.0000000000000000e+00 8.6303750400000006e+00
0.0000000000000000e+00 8.6303750400000006e+00
0.0000000000000000e+00 8.6303750400000006e+00
ITEM: ATOMS c_outsp[1] c_outsp[2] c_outsp[3]
0.0376483 0.0316266 -0.99879
0.590828 0.145026 -0.793656
-0.741958 0.322224 -0.587938
0.916729 0.00630472 0.399459
0.809898 -0.312729 0.496252
0.0844216 0.947514 -0.308366
0.99654 0.0765235 -0.0324397
-0.377357 -0.161053 0.911956
0.489801 0.214935 0.844925
0.634563 -0.0652187 0.770114
-0.152004 -0.909752 -0.386323
0.821061 -0.00762658 -0.570789
-0.207721 -0.965018 0.159978
-0.552758 -0.55514 -0.621513
-0.154807 -0.0701324 -0.985452
0.708227 -0.218205 0.671417
-0.00215797 0.733809 0.679353
-0.785145 -0.611566 0.0976439
-0.402212 0.195878 -0.894347
0.77837 0.622228 0.0835069
-0.465814 -0.425364 -0.77594
-0.783947 0.499409 -0.368805
0.351878 -0.909913 -0.219635
0.653337 -0.549794 -0.520458
0.698104 -0.516046 -0.496334
-0.964047 -0.265723 -0.00233634
0.264041 -0.246997 -0.932349
-0.404428 0.888786 -0.215632
0.179922 -0.954426 -0.238116
-0.503427 -0.80853 0.304698
-0.914413 -0.220947 -0.339163
0.0782675 0.78126 -0.619279
-0.417383 -0.496225 0.761283
-0.645026 -0.274716 0.713073
-0.891222 0.170835 -0.420166
0.139044 -0.960808 0.239824
-0.417779 0.252175 -0.872851
-0.750046 0.629875 -0.201714
-0.0756714 0.557335 -0.826832
-0.176122 0.755459 -0.631081
0.850322 0.206425 0.484088
0.917382 0.13606 -0.37403
-0.80943 0.365384 -0.459693
0.463253 -0.874396 0.144317
0.803588 -0.129104 0.581015
0.20574 -0.780502 -0.590328
-0.0959033 -0.769368 -0.631566
0.0242254 -0.914397 0.404094
0.910215 0.393042 -0.130484
-0.705773 0.282309 -0.649758
0.157194 0.95967 -0.233074
0.578161 0.788443 -0.209971
-0.457982 0.575799 -0.677279
-0.888194 0.455308 -0.0616881
ITEM: TIMESTEP
6535
ITEM: NUMBER OF ATOMS
54
ITEM: BOX BOUNDS pp pp pp
0.0000000000000000e+00 8.6303750400000006e+00
0.0000000000000000e+00 8.6303750400000006e+00
0.0000000000000000e+00 8.6303750400000006e+00
ITEM: ATOMS c_outsp[1] c_outsp[2] c_outsp[3]
0.0702284 0.051507 -0.9962
0.593587 0.17221 -0.786129
-0.717164 0.369972 -0.590589
0.916167 -0.0148346 0.400523
0.770016 -0.350251 0.533291
0.0696723 0.957302 -0.280568
0.998949 0.0314806 -0.0333017
-0.398152 -0.174369 0.900594
0.477928 0.196546 0.856128
0.634429 -0.107859 0.765419
-0.159236 -0.89972 -0.406383
0.824912 -0.0189549 -0.564944
-0.255316 -0.954565 0.153685
-0.559249 -0.545497 -0.624239
-0.110176 -0.0444544 -0.992917
0.666075 -0.234778 0.707971
0.0356969 0.731896 0.680481
-0.793719 -0.602724 0.0820576
-0.379645 0.207827 -0.901486
0.782614 0.615885 0.0905551
-0.480835 -0.409445 -0.775341
-0.749981 0.558271 -0.35477
0.28656 -0.943259 -0.167764
0.648128 -0.571723 -0.503053
0.665434 -0.522963 -0.532642
-0.969418 -0.243664 0.0292735
0.277338 -0.204834 -0.938683
-0.369009 0.898304 -0.238501
0.168732 -0.967521 -0.188233
-0.519063 -0.81578 0.255101
-0.912853 -0.206597 -0.352161
0.0748254 0.770249 -0.633339
-0.410798 -0.479817 0.775255
-0.656295 -0.220471 0.721574
-0.90615 0.185256 -0.380228
0.106871 -0.962432 0.249606
-0.419607 0.243425 -0.874457
-0.720741 0.667874 -0.185679
-0.0722632 0.561551 -0.824281
-0.172237 0.746677 -0.642502
0.869493 0.164413 0.46578
0.90033 0.0978554 -0.424064
-0.783062 0.347261 -0.515969
0.412439 -0.897005 0.158984
0.798671 -0.157408 0.580816
0.230165 -0.77593 -0.58733
-0.0781963 -0.785551 -0.613836
0.00310766 -0.907427 0.420197
0.918993 0.359118 -0.162746
-0.694207 0.330311 -0.639509
0.199727 0.943467 -0.264535
0.610462 0.758816 -0.227012
-0.458377 0.578339 -0.674844
-0.865769 0.493969 -0.0802419
ITEM: TIMESTEP
6540
ITEM: NUMBER OF ATOMS
54
ITEM: BOX BOUNDS pp pp pp
0.0000000000000000e+00 8.6303750400000006e+00
0.0000000000000000e+00 8.6303750400000006e+00
0.0000000000000000e+00 8.6303750400000006e+00
ITEM: ATOMS c_outsp[1] c_outsp[2] c_outsp[3]
0.102482 0.0696346 -0.992295
0.59703 0.198883 -0.777175
-0.690188 0.416114 -0.592021
0.915574 -0.0355884 0.400573
0.726362 -0.387581 0.567608
0.0542417 0.96615 -0.252213
0.999299 -0.0149026 -0.0343543
-0.418803 -0.186973 0.88862
0.465718 0.179202 0.866599
0.633658 -0.148584 0.75921
-0.165695 -0.889553 -0.425724
0.827868 -0.0296736 -0.560137
-0.301628 -0.94224 0.145618
-0.56545 -0.536109 -0.626781
-0.06389 -0.0207703 -0.997741
0.622459 -0.248606 0.742119
0.0737602 0.726947 0.682721
-0.801907 -0.593784 0.0660727
-0.356773 0.217872 -0.90843
0.786584 0.609803 0.0970926
-0.495321 -0.39356 -0.774447
-0.712234 0.61454 -0.33921
0.218522 -0.968972 -0.115504
0.641144 -0.593607 -0.486379
0.630761 -0.527835 -0.568797
-0.97373 -0.21966 0.0599934
0.291693 -0.162449 -0.942616
-0.333621 0.905439 -0.262446
0.15649 -0.978052 -0.137566
-0.5339 -0.820364 0.204828
-0.91047 -0.193646 -0.36544
0.0722901 0.759519 -0.646455
-0.40403 -0.463537 0.788602
-0.665742 -0.165139 0.727679
-0.919107 0.197851 -0.34073
0.0743979 -0.962728 0.260039
-0.420573 0.234686 -0.87638
-0.688997 0.704251 -0.171212
-0.0690507 0.566799 -0.820957
-0.168695 0.738067 -0.653299
0.886378 0.120715 0.446947
0.879562 0.0597287 -0.472021
-0.754363 0.326151 -0.569704
0.360503 -0.917065 0.170381
0.79258 -0.185884 0.580744
0.254089 -0.772081 -0.582521
-0.0609166 -0.800586 -0.596113
-0.0189055 -0.900004 0.435472
0.925717 0.324024 -0.19508
-0.679401 0.377269 -0.629351
0.241174 0.924258 -0.295941
0.642047 0.726454 -0.245032
-0.458205 0.582375 -0.671481
-0.840749 0.532747 -0.0965492
ITEM: TIMESTEP
6545
ITEM: NUMBER OF ATOMS
54
ITEM: BOX BOUNDS pp pp pp
0.0000000000000000e+00 8.6303750400000006e+00
0.0000000000000000e+00 8.6303750400000006e+00
0.0000000000000000e+00 8.6303750400000006e+00
ITEM: ATOMS c_outsp[1] c_outsp[2] c_outsp[3]
0.1342 0.0861072 -0.987206
0.601204 0.225 -0.766765
-0.661168 0.460527 -0.59226
0.914958 -0.0559276 0.399654
0.679068 -0.42447 0.598909
0.0381107 0.973983 -0.223394
0.997413 -0.0624488 -0.0355877
-0.439168 -0.19893 0.876104
0.453265 0.162877 0.876369
0.632368 -0.187285 0.751688
-0.171405 -0.879318 -0.444319
0.829978 -0.0397205 -0.556379
-0.346411 -0.928199 0.135814
-0.571372 -0.526978 -0.629149
-0.0162058 0.000875702 -0.999868
0.577674 -0.259637 0.773874
0.111817 0.718906 0.686054
-0.809682 -0.584763 0.0496753
-0.333813 0.226039 -0.915137
0.790296 0.603985 0.103122
-0.509352 -0.377704 -0.77324
-0.670888 0.667893 -0.322225
0.148584 -0.986882 -0.0631332
0.63245 -0.615364 -0.470462
0.594105 -0.530555 -0.604608
-0.976937 -0.193778 0.0896852
0.307056 -0.120043 -0.94409
-0.29842 0.910145 -0.287371
0.143384 -0.985897 -0.0863018
-0.547723 -0.822351 0.154071
-0.907307 -0.182099 -0.37899
0.0706768 0.749127 -0.658646
-0.397106 -0.447412 0.80133
-0.673215 -0.108958 0.731375
-0.930226 0.20868 -0.301882
0.0416467 -0.961665 0.271047
-0.420698 0.22591 -0.878623
-0.654954 0.738885 -0.158383
-0.0658903 0.573118 -0.816819
-0.165425 0.729684 -0.663473
0.900811 0.0755482 0.427588
0.855276 0.0219108 -0.51771
-0.723622 0.302077 -0.620581
0.307736 -0.934584 0.17847
0.785251 -0.214477 0.580845
0.277361 -0.769043 -0.575885
-0.0440125 -0.814484 -0.578514
-0.0418002 -0.89213 0.44984
0.930257 0.287975 -0.22736
-0.661484 0.422966 -0.619304
0.281296 0.902106 -0.327226
0.672534 0.691354 -0.26406
-0.457296 0.587911 -0.667264
-0.813158 0.57146 -0.110485
ITEM: TIMESTEP
6550
ITEM: NUMBER OF ATOMS
54
ITEM: BOX BOUNDS pp pp pp
0.0000000000000000e+00 8.6303750400000006e+00
0.0000000000000000e+00 8.6303750400000006e+00
0.0000000000000000e+00 8.6303750400000006e+00
ITEM: ATOMS c_outsp[1] c_outsp[2] c_outsp[3]
0.165189 0.101037 -0.981073
0.606149 0.250514 -0.754868
-0.630248 0.5031 -0.591336
0.914326 -0.0758211 0.397817
0.628303 -0.460658 0.626921
0.0212605 0.98073 -0.19421
0.993136 -0.110962 -0.0369971
-0.459115 -0.210303 0.863126
0.440662 0.147539 0.885466
0.630668 -0.223879 0.743059
-0.176397 -0.869083 -0.462146
0.831287 -0.0490418 -0.553675
-0.389435 -0.912624 0.124328
-0.577027 -0.518103 -0.631355
0.0326172 0.020456 -0.999259
0.532012 -0.267836 0.80326
0.149651 0.707735 0.690446
-0.817015 -0.575679 0.0328529
-0.310971 0.23238 -0.921573
0.793773 0.598433 0.108642
-0.523004 -0.361864 -0.7717
-0.626153 0.718025 -0.303928
0.077583 -0.996926 -0.0109199
0.622112 -0.636915 -0.455319
0.555507 -0.531017 -0.639869
-0.978998 -0.166099 0.118215
0.323369 -0.0778105 -0.943068
-0.263567 0.912391 -0.31317
0.129606 -0.99096 -0.0346348
-0.56033 -0.821838 0.103021
-0.903407 -0.171958 -0.392792
0.0700023 0.739117 -0.669929
-0.390057 -0.431461 0.813447
-0.67858 -0.0521825 0.73267
-0.939642 0.217822 -0.263868
0.00864461 -0.959213 0.282552
-0.420007 0.217048 -0.881183
-0.618753 0.771662 -0.14725
-0.0626322 0.580523 -0.811831
-0.162352 0.721578 -0.673029
0.91265 0.0291469 0.407702
0.827694 -0.015378 -0.560969
-0.691143 0.275103 -0.668311
0.254423 -0.949575 0.183237
0.77662 -0.243128 0.581162
0.299825 -0.766897 -0.567428
-0.0274322 -0.827264 -0.561144
-0.0655551 -0.883814 0.463223
0.932513 0.251199 -0.259459
-0.640595 0.467203 -0.609393
0.319853 0.877096 -0.358326
0.701528 0.653559 -0.284113
-0.455475 0.594931 -0.662268
-0.783034 0.609909 -0.121938
ITEM: TIMESTEP
6555
ITEM: NUMBER OF ATOMS
54
ITEM: BOX BOUNDS pp pp pp
0.0000000000000000e+00 8.6303750400000006e+00
0.0000000000000000e+00 8.6303750400000006e+00
0.0000000000000000e+00 8.6303750400000006e+00
ITEM: ATOMS c_outsp[1] c_outsp[2] c_outsp[3]
0.195277 0.114547 -0.974036
0.611894 0.275374 -0.741454
-0.597572 0.543735 -0.589288
0.913683 -0.0952356 0.395111
0.574272 -0.495876 0.651397
0.00367401 0.986325 -0.164771
0.986325 -0.160231 -0.0385825
-0.478525 -0.221155 0.849767
0.427998 0.133156 0.893917
0.628661 -0.258306 0.733528
-0.180703 -0.858908 -0.47919
0.831837 -0.0575915 -0.552024
-0.430496 -0.895712 0.111232
-0.582425 -0.50948 -0.633412
0.0823214 0.037958 -0.995883
0.485751 -0.273181 0.830312
0.187049 0.693408 0.695844
-0.823877 -0.566554 0.0155942
-0.28845 0.236969 -0.927708
0.797034 0.593144 0.113653
-0.536343 -0.346019 -0.769809
-0.578268 0.764655 -0.284445
0.00635159 -0.999144 0.0408764
0.610198 -0.658189 -0.440959
0.515032 -0.529124 -0.674366
-0.979874 -0.13671 0.145454
0.340559 -0.0359469 -0.939536
-0.229226 0.912162 -0.33973
0.115341 -0.993176 0.0172338
-0.57153 -0.81894 0.0518684
-0.898808 -0.163216 -0.406823
0.0702851 0.729532 -0.680326
-0.382918 -0.415702 0.824964
-0.681722 0.00491758 0.731595
-0.947497 0.225363 -0.226849
-0.0245757 -0.955343 0.294477
-0.418531 0.208054 -0.884051
-0.580544 0.802473 -0.137859
-0.0591226 0.589006 -0.805963
-0.159397 0.713795 -0.681974
0.921776 -0.0182347 0.387294
0.797055 -0.0519294 -0.60167
-0.657245 0.245326 -0.712632
0.200841 -0.962057 0.184685
0.76663 -0.27177 0.581738
0.321327 -0.765709 -0.557171
-0.0111254 -0.838948 -0.544098
-0.090142 -0.875062 0.475544
0.932418 0.213936 -0.291251
-0.616879 0.509795 -0.599641
0.356608 0.849335 -0.389179
0.728626 0.613153 -0.305199
-0.452565 0.603402 -0.656576
-0.750428 0.647878 -0.130816
ITEM: TIMESTEP
6560
ITEM: NUMBER OF ATOMS
54
ITEM: BOX BOUNDS pp pp pp
0.0000000000000000e+00 8.6303750400000006e+00
0.0000000000000000e+00 8.6303750400000006e+00
0.0000000000000000e+00 8.6303750400000006e+00
ITEM: ATOMS c_outsp[1] c_outsp[2] c_outsp[3]
0.224307 0.126767 -0.966238
0.618461 0.299523 -0.726493
-0.563287 0.582345 -0.586159
0.913033 -0.114136 0.391591
0.517215 -0.529849 0.672122
-0.0146636 0.990711 -0.135193
0.976863 -0.210027 -0.0403478
-0.497286 -0.23155 0.836117
0.41536 0.119691 0.901748
0.626441 -0.290528 0.723301
-0.184363 -0.848851 -0.495442
0.831668 -0.065331 -0.551416
-0.469417 -0.877675 0.0966114
-0.587576 -0.501102 -0.635336
0.132652 0.0533833 -0.989724
0.439164 -0.275665 0.85507
0.223799 0.675916 0.702177
-0.830233 -0.557412 -0.00211046
-0.266435 0.239903 -0.93352
0.800104 0.588111 0.11815
-0.549433 -0.33014 -0.767549
-0.527495 0.807527 -0.263912
-0.0642931 -0.99368 0.0920096
0.596776 -0.679119 -0.427383
0.472772 -0.524785 -0.707875
-0.979535 -0.105708 0.171281
0.358543 0.0053611 -0.933498
-0.195567 0.909459 -0.366929
0.100772 -0.992507 0.0690983
-0.581145 -0.813799 0.000801814
-0.893544 -0.155863 -0.421053
0.0715457 0.720401 -0.689857
-0.375726 -0.40015 0.835889
-0.682548 0.0620629 0.728201
-0.953932 0.231404 -0.190959
-0.0579753 -0.950026 0.306742
-0.416303 0.198878 -0.887209
-0.540481 0.831213 -0.130249
-0.0552066 0.598535 -0.799192
-0.156481 0.706378 -0.690321
0.9281 -0.0663298 0.366375
0.763607 -0.0875491 -0.639718
-0.62225 0.212882 -0.753317
0.14726 -0.972052 0.182838
0.755224 -0.300328 0.582614
0.341708 -0.765534 -0.545154
0.00495554 -0.849566 -0.52746
-0.115525 -0.86588 0.486729
0.929942 0.176431 -0.322614
-0.590493 0.550572 -0.590076
0.39133 0.818957 -0.419727
0.753427 0.570276 -0.327311
-0.448387 0.613269 -0.650269
-0.715412 0.685132 -0.137042
ITEM: TIMESTEP
6565
ITEM: NUMBER OF ATOMS
54
ITEM: BOX BOUNDS pp pp pp
0.0000000000000000e+00 8.6303750400000006e+00
0.0000000000000000e+00 8.6303750400000006e+00
0.0000000000000000e+00 8.6303750400000006e+00
ITEM: ATOMS c_outsp[1] c_outsp[2] c_outsp[3]
0.252143 0.137833 -0.957824
0.625861 0.322901 -0.709953
-0.527538 0.618857 -0.581997
0.91238 -0.132484 0.387311
0.457403 -0.562302 0.688911
-0.0337632 0.993835 -0.105603
0.964652 -0.260111 -0.0423012
-0.5153 -0.241546 0.822266
0.402832 0.107107 0.908986
0.624091 -0.32053 0.71258
-0.187416 -0.838962 -0.510899
0.830816 -0.0722279 -0.551841
-0.506048 -0.858734 0.0805672
-0.592488 -0.492959 -0.637141
0.183357 0.0667461 -0.980778
0.392511 -0.275292 0.877581
0.259694 0.655264 0.709358
-0.836049 -0.548279 -0.0202695
-0.245102 0.241295 -0.93899
0.803005 0.583324 0.122129
-0.562327 -0.314192 -0.7649
-0.474119 0.846415 -0.242472
-0.133563 -0.980778 0.14225
0.58191 -0.699642 -0.414587
0.428843 -0.517925 -0.740167
-0.977953 -0.0731965 0.195578
0.377227 0.0459357 -0.924981
-0.162759 0.904305 -0.394641
0.0860745 -0.988944 0.120751
-0.589017 -0.806573 -0.0499946
-0.88765 -0.149884 -0.435445
0.0738062 0.711752 -0.698543
-0.368524 -0.384814 0.846231
-0.680988 0.118968 0.722567
-0.959087 0.23605 -0.156311
-0.0915095 -0.943236 0.319268
-0.413364 0.189476 -0.890634
-0.498723 0.857781 -0.124446
-0.0507313 0.609057 -0.791502
-0.153521 0.699363 -0.698085
0.931562 -0.114862 0.344963
0.727608 -0.122057 -0.675047
-0.586483 0.177939 -0.790174
0.0939435 -0.979584 0.177737
0.742351 -0.328721 0.583829
0.360816 -0.766413 -0.531435
0.0208547 -0.859148 -0.511302
-0.141663 -0.856279 0.496707
0.925088 0.13893 -0.353428
-0.561596 0.589377 -0.580728
0.423795 0.786113 -0.449916
0.775537 0.525113 -0.350427
-0.442765 0.624459 -0.643436
-0.678075 0.721427 -0.140561
ITEM: TIMESTEP
6570
ITEM: NUMBER OF ATOMS
54
ITEM: BOX BOUNDS pp pp pp
0.0000000000000000e+00 8.6303750400000006e+00
0.0000000000000000e+00 8.6303750400000006e+00
0.0000000000000000e+00 8.6303750400000006e+00
ITEM: ATOMS c_outsp[1] c_outsp[2] c_outsp[3]
0.278664 0.147882 -0.948935
0.634094 0.345443 -0.691805
-0.490466 0.653208 -0.576855
0.911729 -0.150242 0.382331
0.395135 -0.592963 0.701615
-0.0536317 0.995655 -0.0761286
0.94962 -0.310235 -0.0444541
-0.532482 -0.251201 0.808308
0.390495 0.0953652 0.915653
0.621686 -0.348313 0.701558
-0.189903 -0.82929 -0.525562
0.829312 -0.0782559 -0.553279
-0.540274 -0.839112 0.063211
-0.597171 -0.485037 -0.638847
0.23419 0.0780715 -0.969051
0.346046 -0.272083 0.897899
0.294534 0.631474 0.71728
-0.841289 -0.539184 -0.0388894
-0.224608 0.24128 -0.944106
0.805763 0.57877 0.125585
-0.575072 -0.298135 -0.761845
-0.418442 0.881126 -0.22028
-0.200714 -0.960773 0.191386
0.565665 -0.7197 -0.402561
0.383388 -0.508482 -0.771012
-0.975105 -0.0392839 0.218238
0.396508 0.085611 -0.914031
-0.13097 0.896741 -0.422732
0.071416 -0.982508 0.171984
-0.595001 -0.797437 -0.100341
-0.881158 -0.145258 -0.449957
0.0770901 0.703601 -0.706401
-0.361357 -0.369704 0.856002
-0.676998 0.175347 0.714791
-0.963096 0.239413 -0.122994
-0.125127 -0.934951 0.331979
-0.409759 0.179801 -0.894298
-0.455438 0.882079 -0.120468
-0.0455477 0.620494 -0.782887
-0.150434 0.692779 -0.705285
0.932131 -0.163551 0.323083
0.689315 -0.155288 -0.707623
-0.550267 0.140694 -0.82305
0.0411469 -0.984682 0.169437
0.727963 -0.356864 0.585421
0.378499 -0.768372 -0.516084
0.0366114 -0.867732 -0.495683
-0.168504 -0.846266 0.505411
0.917893 0.101674 -0.383582
-0.530355 0.62607 -0.571629
0.453791 0.750978 -0.479693
0.794576 0.477904 -0.374509
-0.435525 0.636876 -0.636166
-0.638529 0.756508 -0.141337
ITEM: TIMESTEP
6575
ITEM: NUMBER OF ATOMS
54
ITEM: BOX BOUNDS pp pp pp
0.0000000000000000e+00 8.6303750400000006e+00
0.0000000000000000e+00 8.6303750400000006e+00
0.0000000000000000e+00 8.6303750400000006e+00
ITEM: ATOMS c_outsp[1] c_outsp[2] c_outsp[3]
0.303768 0.157052 -0.939712
0.64315 0.367078 -0.672021
-0.452212 0.685348 -0.570791
0.911085 -0.167367 0.376712
0.330735 -0.621567 0.710119
-0.0742702 0.996134 -0.0469041
0.931722 -0.36014 -0.0468212
-0.548755 -0.260568 0.794338
0.378426 0.0844246 0.921773
0.619289 -0.373898 0.690421
-0.191868 -0.819875 -0.539436
0.827185 -0.0833936 -0.555707
-0.572007 -0.819032 0.0446636
-0.601631 -0.477322 -0.640472
0.284912 0.0873944 -0.954561
0.30001 -0.266067 0.91608
0.328125 0.604581 0.725821
-0.845916 -0.530156 -0.0579751
-0.205093 0.240004 -0.94886
0.808402 0.574431 0.128513
-0.587706 -0.281925 -0.758367
-0.360784 0.911499 -0.197495
-0.265052 -0.934087 0.239228
0.548103 -0.73924 -0.39129
0.336572 -0.496413 -0.800184
-0.970972 -0.00408439 0.23916
0.416273 0.124236 -0.900712
-0.100369 0.886831 -0.451062
0.0569554 -0.973246 0.222593
-0.598976 -0.786581 -0.150062
-0.874099 -0.14196 -0.464541
0.0814224 0.695959 -0.71345
-0.354273 -0.354822 0.865212
-0.670563 0.230917 0.704998
-0.96609 0.241609 -0.091074
-0.158771 -0.925152 0.344797
-0.405537 0.169813 -0.898166
-0.410795 0.904017 -0.118325
-0.0395141 0.632749 -0.773348
-0.147137 0.68665 -0.711943
0.92981 -0.212115 0.300766
0.648985 -0.187093 -0.737438
-0.513918 0.101372 -0.851829
-0.0108812 -0.987377 0.158014
0.712017 -0.384665 0.587422
0.394613 -0.771422 -0.499188
0.0522594 -0.875353 -0.480651
-0.195991 -0.835852 0.512775
0.90843 0.0648937 -0.41297
-0.496939 0.660521 -0.562817
0.481119 0.713747 -0.509008
0.810191 0.428936 -0.399505
-0.4265 0.6504 -0.628552
-0.596902 0.790119 -0.139357
ITEM: TIMESTEP
6580
ITEM: NUMBER OF ATOMS
54
ITEM: BOX BOUNDS pp pp pp
0.0000000000000000e+00 8.6303750400000006e+00
0.0000000000000000e+00 8.6303750400000006e+00
0.0000000000000000e+00 8.6303750400000006e+00
ITEM: ATOMS c_outsp[1] c_outsp[2] c_outsp[3]
0.327367 0.165479 -0.930294
0.653007 0.387731 -0.650574
-0.412911 0.715236 -0.563863
0.910454 -0.183819 0.370519
0.26455 -0.64786 0.714346
-0.0956741 0.995249 -0.0180656
0.91094 -0.409568 -0.0494196
-0.564056 -0.269696 0.780452
0.366701 0.0742443 0.927371
0.616955 -0.397319 0.679341
-0.193352 -0.810756 -0.552531
0.824458 -0.0876244 -0.559098
-0.601194 -0.79871 0.0250519
-0.605873 -0.469796 -0.642035
0.335288 0.0947573 -0.937338
0.254635 -0.257288 0.932182
0.360283 0.574637 0.734839
-0.84989 -0.521226 -0.0775298
-0.186679 0.237626 -0.95325
0.810946 0.570289 0.130909
-0.60026 -0.265515 -0.754446
-0.301475 0.937411 -0.174281
-0.325949 -0.901214 0.285606
0.529283 -0.758211 -0.380756
0.288584 -0.481696 -0.827459
-0.965538 0.0322847 0.258253
0.436402 0.161675 -0.885107
-0.0711169 0.87466 -0.479491
0.0428405 -0.961236 0.272378
-0.600839 -0.774206 -0.198989