ITEM: TIMESTEP
9000
ITEM: NUMBER OF ATOMS
54
ITEM: BOX BOUNDS pp pp pp
0.0000000000000000e+00 8.6303750400000006e+00
0.0000000000000000e+00 8.6303750400000006e+00
0.0000000000000000e+00 8.6303750400000006e+00
ITEM: ATOMS c_outsp[1] c_outsp[2] c_outsp[3]
0.347222 -0.390969 -0.852397
0.694393 -0.711598 -0.106994
-0.614249 0.208253 0.761136
0.441915 0.748185 0.494905
-0.245608 -0.94254 0.226482
0.728429 -0.449866 -0.516731
0.726264 -0.371231 0.578557
-0.308342 -0.34752 -0.885525
-0.253559 -0.884354 -0.391951
-0.542029 -0.126238 0.830824
-0.0063805 -0.948206 -0.317591
-0.797981 -0.594673 -0.0979254
-0.3938 0.708842 0.585205
0.149895 0.82742 -0.541209
0.785902 0.598136 0.156817
-0.263194 -0.701172 -0.662636
0.196809 -0.455756 -0.868074
0.881816 0.0323043 -0.470486
-0.902695 -0.111765 -0.415511
0.209928 0.239506 0.947928
-0.430557 0.832806 -0.34793
0.606428 0.437928 -0.663675
-0.194409 -0.18737 0.962859
0.528153 -0.730033 0.433713
0.570558 0.671795 -0.472393
0.185478 0.977686 -0.0986281
0.73498 -0.672023 0.0904923
0.125694 -0.301917 -0.945012
-0.879205 -0.46487 0.104378
-0.641505 0.749242 0.164644
0.482305 -0.628095 -0.610638
0.0830225 -0.968432 0.235047
0.23968 -0.617268 0.749356
-0.945234 -0.190827 0.264797
0.197848 -0.0869055 -0.976373
-0.983382 0.0514652 -0.1741
-0.699981 -0.653111 -0.288917
-0.482283 0.00454618 0.876004
0.071172 0.137171 -0.987987
0.602697 -0.788572 0.122111
0.413927 0.810459 0.414513
-0.270057 -0.0555633 -0.96124
-0.341145 0.29103 0.893824
-0.0387768 0.596174 -0.801918
-0.192053 -0.086554 -0.97756
0.344396 0.54094 -0.767317
0.0507814 -0.376372 -0.925076
-0.839874 0.320191 -0.43828
-0.0364726 0.990097 -0.135562
0.486077 -0.379194 -0.787363
0.238918 -0.39918 -0.885197
0.957655 -0.00875499 -0.287783
-0.409026 0.898877 -0.15722
0.0294998 0.977771 -0.207588
ITEM: TIMESTEP
9005
ITEM: NUMBER OF ATOMS
54
ITEM: BOX BOUNDS pp pp pp
0.0000000000000000e+00 8.6303750400000006e+00
0.0000000000000000e+00 8.6303750400000006e+00
0.0000000000000000e+00 8.6303750400000006e+00
ITEM: ATOMS c_outsp[1] c_outsp[2] c_outsp[3]
0.388014 -0.405691 -0.827563
0.686005 -0.71915 -0.110545
-0.621016 0.234623 0.747857
0.447081 0.714126 0.538649
-0.254524 -0.936207 0.242351
0.745642 -0.421273 -0.516282
0.684674 -0.378924 0.622606
-0.312359 -0.377386 -0.871787
-0.268445 -0.883246 -0.384467
-0.597748 -0.126924 0.791573
0.000192265 -0.948988 -0.315312
-0.815618 -0.56693 -0.115574
-0.42345 0.705456 0.56835
0.138429 0.828212 -0.543049
0.808016 0.572637 0.138553
-0.30067 -0.679092 -0.669651
0.210612 -0.430304 -0.87777
0.870608 0.0599988 -0.488305
-0.913147 -0.0947103 -0.396476
0.247374 0.233056 0.940474
-0.427237 0.849562 -0.309374
0.58697 0.441669 -0.678524
-0.169568 -0.171592 0.970465
0.520247 -0.749514 0.409356
0.601253 0.658119 -0.453182
0.257107 0.959592 -0.114364
0.740306 -0.669139 0.0648126
0.143887 -0.3115 -0.939289
-0.887156 -0.454858 0.0778411
-0.628306 0.765335 0.13962
0.487939 -0.653102 -0.579114
0.0529798 -0.973312 0.223289
0.184906 -0.646015 0.740591
-0.948288 -0.187622 0.256025
0.211878 -0.105429 -0.971593
-0.97129 0.0917509 -0.219493
-0.724401 -0.633647 -0.271541
-0.499749 0.0150819 0.866039
0.0739616 0.134221 -0.988187
0.581866 -0.795253 0.170306
0.431016 0.788175 0.439324
-0.274843 -0.0433512 -0.960511
-0.296699 0.318523 0.900285
-0.0125869 0.602835 -0.797766
-0.185977 -0.0902289 -0.978402
0.339643 0.516786 -0.785859
0.0252528 -0.390611 -0.920209
-0.819654 0.372393 -0.435305
-0.0151456 0.995097 -0.0977366
0.449466 -0.431076 -0.782403
0.172252 -0.403964 -0.898411
0.935976 -0.0614045 -0.346666
-0.349209 0.91959 -0.180019
0.0935787 0.983499 -0.154832
ITEM: TIMESTEP
9010
ITEM: NUMBER OF ATOMS
54
ITEM: BOX BOUNDS pp pp pp
0.0000000000000000e+00 8.6303750400000006e+00
0.0000000000000000e+00 8.6303750400000006e+00
0.0000000000000000e+00 8.6303750400000006e+00
ITEM: ATOMS c_outsp[1] c_outsp[2] c_outsp[3]
0.426492 -0.422108 -0.799956
0.677978 -0.726154 -0.11422
-0.626676 0.26086 0.734322
0.452203 0.67701 0.580664
-0.264918 -0.928979 0.258487
0.763461 -0.392635 -0.512802
0.641339 -0.384305 0.664074
-0.316704 -0.40526 -0.857591
-0.284281 -0.881331 -0.377413
-0.650936 -0.125664 0.748659
0.00744145 -0.94999 -0.31219
-0.832435 -0.537932 -0.13297
-0.452529 0.699873 0.552626
0.126363 0.829047 -0.544714
0.82835 0.547237 0.119862
-0.336579 -0.654417 -0.677091
0.225904 -0.404984 -0.885977
0.858866 0.0897909 -0.504269
-0.923106 -0.0763905 -0.376882
0.283452 0.224507 0.932337
-0.422145 0.865375 -0.270037
0.566687 0.445941 -0.692823
-0.143647 -0.156649 0.977152
0.51244 -0.768062 0.384039
0.632304 0.641504 -0.434356
0.326792 0.936097 -0.130109
0.745284 -0.665575 0.0395188
0.161638 -0.31945 -0.933716
-0.893769 -0.445686 0.0504027
-0.613619 0.781289 0.114271
0.491021 -0.678493 -0.546393
0.0238849 -0.977149 0.211209
0.130043 -0.67129 0.729697
-0.95107 -0.184645 0.247734
0.225631 -0.123902 -0.966302
-0.955384 0.12902 -0.265697
-0.74825 -0.612626 -0.254581
-0.517298 0.0265767 0.855393
0.0779875 0.129864 -0.98846
0.559212 -0.799873 0.217912
0.446858 0.764931 0.463895
-0.278899 -0.0316589 -0.959799
-0.250605 0.346823 0.903831
0.0147813 0.607639 -0.794076
-0.180347 -0.0953099 -0.978974
0.332211 0.494801 -0.803
-0.00231336 -0.402653 -0.91535
-0.796334 0.423191 -0.43216
0.00882382 0.998193 -0.0594462
0.408586 -0.480771 -0.775833
0.106545 -0.402204 -0.909329
0.907702 -0.111439 -0.404547
-0.287439 0.93607 -0.202859
0.159048 0.981845 -0.10336
ITEM: TIMESTEP
9015
ITEM: NUMBER OF ATOMS
54
ITEM: BOX BOUNDS pp pp pp
0.0000000000000000e+00 8.6303750400000006e+00
0.0000000000000000e+00 8.6303750400000006e+00
0.0000000000000000e+00 8.6303750400000006e+00
ITEM: ATOMS c_outsp[1] c_outsp[2] c_outsp[3]
0.462477 -0.440056 -0.769718
0.670346 -0.73261 -0.117975
-0.631281 0.28693 0.720525
0.457185 0.636948 0.620709
-0.276809 -0.920784 0.274832
0.781715 -0.36408 -0.506327
0.596536 -0.387399 0.702899
-0.321377 -0.431051 -0.843156
-0.301004 -0.878541 -0.370893
-0.701243 -0.122447 0.702328
0.0152974 -0.951207 -0.308174
-0.848329 -0.507722 -0.150189
-0.480986 0.692183 0.538085
0.113704 0.829945 -0.546134
0.846932 0.522047 0.100863
-0.370743 -0.627325 -0.684845
0.242647 -0.379948 -0.892615
0.846601 0.121534 -0.518165
-0.932462 -0.0568277 -0.356771
0.317994 0.21399 0.923628
-0.415417 0.880056 -0.230064
0.545621 0.450779 -0.706468
-0.116701 -0.14259 0.982878
0.504697 -0.785665 0.357787
0.663493 0.62184 -0.416045
0.394114 0.907442 -0.145681
0.749883 -0.661408 0.0146679
0.179058 -0.325708 -0.92836
-0.898963 -0.437466 0.0220985
-0.597395 0.797031 0.0886585
0.491503 -0.70406 -0.512566
-0.00419455 -0.98001 0.198902
0.0754341 -0.693082 0.716901
-0.953614 -0.181814 0.239925
0.239123 -0.142305 -0.960505
-0.93585 0.162978 -0.312448
-0.771468 -0.590031 -0.238118
-0.534881 0.039087 0.844023
0.083151 0.123886 -0.988806
0.534814 -0.802411 0.264785
0.461435 0.740794 0.488162
-0.282329 -0.0205032 -0.959098
-0.202979 0.375662 0.904255
0.0430718 0.610431 -0.790897
-0.17528 -0.101821 -0.979239
0.322473 0.4752 -0.818655
-0.0317734 -0.412271 -0.910507
-0.770016 0.472408 -0.428842
0.0353409 0.999156 -0.0209293
0.363586 -0.527827 -0.767596
0.0425556 -0.39419 -0.918043
0.873155 -0.158192 -0.461059
-0.224056 0.948097 -0.225635
0.225253 0.972826 -0.0535838
ITEM: TIMESTEP
9020
ITEM: NUMBER OF ATOMS
54
ITEM: BOX BOUNDS pp pp pp
0.0000000000000000e+00 8.6303750400000006e+00
0.0000000000000000e+00 8.6303750400000006e+00
0.0000000000000000e+00 8.6303750400000006e+00
ITEM: ATOMS c_outsp[1] c_outsp[2] c_outsp[3]
0.495807 -0.459356 -0.736998
0.663142 -0.738522 -0.121771
-0.634883 0.312796 0.706458
0.461936 0.594077 0.65855
-0.290199 -0.911546 0.291323
0.800231 -0.335721 -0.496912
0.550529 -0.388249 0.73904
-0.326378 -0.454689 -0.828695
-0.318546 -0.874813 -0.365008
-0.748345 -0.117276 0.65286
0.0236853 -0.952626 -0.303219
-0.863189 -0.476352 -0.167309
-0.508771 0.682485 0.524753
0.100462 0.830933 -0.547228
0.863799 0.497172 0.081674
-0.403012 -0.598005 -0.6928
0.26079 -0.35535 -0.897616
0.833841 0.155062 -0.529779
-0.941106 -0.0360553 -0.336185
0.350851 0.20165 0.914462
-0.40721 0.893437 -0.189605
0.523826 0.45621 -0.719359
-0.0887906 -0.129458 0.987602
0.496979 -0.802305 0.330634
0.694584 0.599041 -0.398376
0.458685 0.873907 -0.160916
0.754075 -0.656717 -0.00968126
0.196258 -0.330226 -0.923273
-0.902654 -0.43031 -0.00702175
-0.579596 0.812476 0.0628519
0.489362 -0.729587 -0.477732
-0.0311963 -0.981967 0.186459
0.0214044 -0.711421 0.70244
-0.955953 -0.179042 0.232588
0.252368 -0.160625 -0.954206
-0.912904 0.193355 -0.359471
-0.793991 -0.565854 -0.222233
-0.552444 0.0526678 0.831884
0.0893199 0.116082 -0.989215
0.508755 -0.802857 0.310787
0.474733 0.715832 0.512068
-0.285236 -0.009886 -0.958406
-0.153957 0.404755 0.901372
0.0720152 0.611092 -0.788277
-0.170891 -0.109774 -0.979156
0.310821 0.458153 -0.832758
-0.0629546 -0.419251 -0.905685
-0.740812 0.51987 -0.425362
0.064277 0.997777 0.0175667
0.314676 -0.571801 -0.757643
-0.0190207 -0.380285 -0.924674
0.832757 -0.201033 -0.515851
-0.159435 0.955485 -0.248251
0.291549 0.956538 -0.00589498
ITEM: TIMESTEP
9025
ITEM: NUMBER OF ATOMS
54
ITEM: BOX BOUNDS pp pp pp
0.0000000000000000e+00 8.6303750400000006e+00
0.0000000000000000e+00 8.6303750400000006e+00
0.0000000000000000e+00 8.6303750400000006e+00
ITEM: ATOMS c_outsp[1] c_outsp[2] c_outsp[3]
0.526345 -0.479815 -0.701953
0.656394 -0.743894 -0.125573
-0.637538 0.338427 0.692107
0.466365 0.54856 0.693963
-0.305073 -0.901182 0.307898
0.818834 -0.307657 -0.484621
0.503574 -0.386909 0.772473
-0.331711 -0.476123 -0.814417
-0.336835 -0.870084 -0.359856
-0.791947 -0.110172 0.600569
0.0325255 -0.954233 -0.297289
-0.876899 -0.443895 -0.184405
-0.535836 0.670891 0.512626
0.0866534 0.832034 -0.547914
0.879005 0.47271 0.0624122
-0.433258 -0.566661 -0.700845
0.280269 -0.331345 -0.900922
0.820622 0.190184 -0.538896
-0.94893 -0.0141168 -0.31517
0.381901 0.187642 0.904954
-0.397698 0.905368 -0.148814
0.501369 0.462255 -0.731403
-0.0599787 -0.117293 0.991284
0.489243 -0.817961 0.302622
0.725326 0.57305 -0.381467
0.520155 0.835811 -0.175666
0.757839 -0.651583 -0.0334686
0.213344 -0.332965 -0.918487
-0.904759 -0.424324 -0.036893
-0.560198 0.827535 0.0369273
0.484598 -0.754857 -0.441991
-0.0570645 -0.983097 0.173968
-0.0317416 -0.726377 0.686563
-0.958122 -0.17624 0.225701
0.265372 -0.178851 -0.947412
-0.886796 0.219914 -0.406486
-0.815747 -0.540098 -0.207006
-0.569927 0.0673722 0.818929
0.0963287 0.106262 -0.989661
0.481126 -0.801209 0.355784
0.486747 0.690116 0.535553
-0.287714 0.000204189 -0.957716
-0.103706 0.433804 0.895019
0.101333 0.609531 -0.78626
-0.16729 -0.119166 -0.978679
0.297659 0.44378 -0.845256
-0.0956559 -0.42339 -0.900884
-0.708835 0.565408 -0.421743
0.0954722 0.993868 0.0557889
0.262116 -0.612263 -0.745942
-0.0775566 -0.360919 -0.929367
0.78702 -0.23939 -0.568588
-0.093987 0.958085 -0.270626
0.35731 0.933157 0.0393355
ITEM: TIMESTEP
9030
ITEM: NUMBER OF ATOMS
54
ITEM: BOX BOUNDS pp pp pp
0.0000000000000000e+00 8.6303750400000006e+00
0.0000000000000000e+00 8.6303750400000006e+00
0.0000000000000000e+00 8.6303750400000006e+00
ITEM: ATOMS c_outsp[1] c_outsp[2] c_outsp[3]
0.553973 -0.501227 -0.664745
0.650127 -0.748735 -0.129348
-0.639303 0.363789 0.677458
0.470392 0.500585 0.726737
-0.3214 -0.88961 0.324494
0.83735 -0.279973 -0.469532
0.455909 -0.383449 0.80319
-0.337375 -0.495321 -0.800522
-0.355792 -0.864296 -0.355534
-0.831789 -0.101171 0.545794
0.0417342 -0.956009 -0.290354
-0.889337 -0.410434 -0.201552
-0.562138 0.657514 0.501672
0.0723035 0.833278 -0.548106
0.892612 0.448752 0.0431915
-0.461377 -0.533506 -0.708874
0.301006 -0.308085 -0.902485
0.806999 0.226691 -0.545311
-0.955833 0.00893475 -0.293774
0.411041 0.172124 0.89522
-0.38707 0.915721 -0.107846
0.478326 0.468923 -0.742506
-0.0303296 -0.106132 0.993889
0.481445 -0.832612 0.273804
0.755453 0.543835 -0.365424
0.578212 0.793501 -0.189806
0.761161 -0.646086 -0.0566346
0.23042 -0.333895 -0.914014
-0.905197 -0.419609 -0.0674339
-0.539193 0.842111 0.0109663
0.477239 -0.779652 -0.405446
-0.0817494 -0.983478 0.161516
-0.0837238 -0.738057 0.669523
-0.960156 -0.173317 0.219231
0.278135 -0.196982 -0.940127
-0.857799 0.242449 -0.453209
-0.836662 -0.512771 -0.192518
-0.58726 0.0832503 0.805106
0.10398 0.0942493 -0.990104
0.452022 -0.79747 0.399646
0.497481 0.663714 0.558566
-0.289853 0.00979119 -0.957021
-0.0524157 0.462506 0.885065
0.13074 0.605689 -0.784887
-0.164582 -0.129985 -0.977761
0.283396 0.432152 -0.856114
-0.129649 -0.424506 -0.896095
-0.674208 0.608854 -0.41802
0.128738 0.987263 0.0934833
0.206222 -0.648808 -0.732475
-0.132502 -0.336578 -0.932287
0.736542 -0.272752 -0.618961
-0.0281494 0.955793 -0.292691
0.42193 0.902934 0.0817637
ITEM: TIMESTEP
9035
ITEM: NUMBER OF ATOMS
54
ITEM: BOX BOUNDS pp pp pp
0.0000000000000000e+00 8.6303750400000006e+00
0.0000000000000000e+00 8.6303750400000006e+00
0.0000000000000000e+00 8.6303750400000006e+00
ITEM: ATOMS c_outsp[1] c_outsp[2] c_outsp[3]
0.578596 -0.523378 -0.625541
0.644359 -0.753057 -0.133065
-0.640237 0.388848 0.66249
0.473942 0.45036 0.756673
-0.339128 -0.876741 0.341053
0.855607 -0.252738 -0.451731
0.40776 -0.377945 0.831198
-0.343368 -0.512264 -0.7872
-0.375333 -0.857395 -0.352135
-0.867651 -0.0903238 0.4889
0.0512241 -0.95793 -0.282394
-0.90038 -0.376077 -0.218821
-0.587638 0.64248 0.491834
0.0574451 0.834692 -0.547713
0.904695 0.425377 0.0241222
-0.487293 -0.49876 -0.716787
0.322911 -0.28572 -0.902271
0.793037 0.264349 -0.548828
-0.961717 0.033037 -0.272046
0.438193 0.155257 0.885371
-0.375526 0.924397 -0.0668532
0.454785 0.47622 -0.752586
9.00433e-05 -0.0960022 0.995381
0.473541 -0.84623 0.244239
0.78469 0.511393 -0.35034
0.632587 0.747349 -0.203231
0.764033 -0.640307 -0.0791207
0.247581 -0.332996 -0.909845
-0.903889 -0.416261 -0.0985456
-0.516588 0.856104 -0.0149449
0.467332 -0.803759 -0.368202
-0.105208 -0.983196 0.149185
-0.134289 -0.746604 0.651574
-0.962088 -0.170179 0.213135
0.290651 -0.215018 -0.932357
-0.826216 0.260789 -0.499356
-0.856656 -0.483894 -0.178848
-0.604368 0.100349 0.790361
0.112044 0.0798944 -0.990486
0.421547 -0.791651 0.442253
0.506942 0.636698 0.581056
-0.291731 0.0189094 -0.956314
-0.000304427 0.490553 0.871411
0.15995 0.599541 -0.784198
-0.162864 -0.142203 -0.976347
0.268438 0.423295 -0.865311
-0.164683 -0.422437 -0.891306
-0.637058 0.650044 -0.414245
0.163859 0.977827 0.130398
0.147355 -0.681062 -0.717245
-0.183387 -0.307787 -0.933614
0.681993 -0.300681 -0.66669
0.0376192 0.948548 -0.314392
0.484838 0.866183 0.121077
ITEM: TIMESTEP
9040
ITEM: NUMBER OF ATOMS
54
ITEM: BOX BOUNDS pp pp pp
0.0000000000000000e+00 8.6303750400000006e+00
0.0000000000000000e+00 8.6303750400000006e+00
0.0000000000000000e+00 8.6303750400000006e+00
ITEM: ATOMS c_outsp[1] c_outsp[2] c_outsp[3]
0.600143 -0.546049 -0.584516
0.639106 -0.756873 -0.136699
-0.640401 0.41357 0.647184
0.476952 0.398119 0.783593
-0.358185 -0.862487 0.357518
0.873435 -0.226008 -0.431314
0.359337 -0.370482 0.856516
-0.349682 -0.526949 -0.774627
-0.395369 -0.849329 -0.349748
-0.899351 -0.0776959 0.430268
0.0609052 -0.959971 -0.273396
-0.909905 -0.340945 -0.236281
-0.612303 0.625916 0.483026
0.0421207 0.836305 -0.546645
0.915337 0.402655 0.00530967
-0.510949 -0.462646 -0.724493
0.345878 -0.264393 -0.900258
0.778816 0.302907 -0.549266
-0.96649 0.0581199 -0.250039
0.463301 0.137201 0.875516
-0.36327 0.931321 -0.0259895
0.430846 0.484141 -0.761563
0.031212 -0.0869296 0.995725
0.46549 -0.858793 0.213995
0.812754 0.475751 -0.336293
0.683053 0.697743 -0.215856
0.766455 -0.634328 -0.100871
0.264913 -0.330258 -0.905953
-0.900761 -0.414367 -0.130112
-0.492406 0.869412 -0.040717
0.454949 -0.82697 -0.330366
-0.127404 -0.982336 0.137054
-0.183214 -0.752189 0.632964
-0.963952 -0.166732 0.207357
0.302907 -0.232965 -0.924107
-0.79237 0.274796 -0.544644
-0.875648 -0.453498 -0.166075
-0.621166 0.11871 0.774636
0.120265 0.0630744 -0.990736
0.38981 -0.783765 0.483488
0.515143 0.609137 0.602976
-0.29342 0.0276024 -0.955585
0.0523868 0.51764 0.853993
0.188678 0.591091 -0.784227
-0.162224 -0.155781 -0.97438
0.253184 0.417191 -0.87284
-0.20048 -0.417048 -0.886498
-0.597523 0.68882 -0.410479
0.200601 0.965457 0.166289
0.0859224 -0.708686 -0.700272
-0.229828 -0.275104 -0.93354
0.624107 -0.322823 -0.711531
0.102845 0.936342 -0.335689
0.545495 0.823278 0.156997
ITEM: TIMESTEP
9045
ITEM: NUMBER OF ATOMS
54
ITEM: BOX BOUNDS pp pp pp
0.0000000000000000e+00 8.6303750400000006e+00
0.0000000000000000e+00 8.6303750400000006e+00
0.0000000000000000e+00 8.6303750400000006e+00
ITEM: ATOMS c_outsp[1] c_outsp[2] c_outsp[3]
0.618568 -0.569013 -0.541846
0.63438 -0.760197 -0.140225
-0.639856 0.437918 0.631516
0.479368 0.34411 0.807338
-0.378479 -0.846758 0.373838
0.890669 -0.199827 -0.408384
0.310836 -0.361152 0.879176
-0.356299 -0.539384 -0.762966
-0.4158 -0.840052 -0.348457
-0.926752 -0.0633668 0.370292
0.0706853 -0.962105 -0.263357
-0.917796 -0.305184 -0.253993
-0.636109 0.607956 0.475137
0.0263824 0.838146 -0.544808
0.924628 0.380644 -0.0131467
-0.532313 -0.425388 -0.731907
0.369791 -0.244237 -0.896439
0.764425 0.342095 -0.546467
-0.970067 0.0841063 -0.227805
0.486327 0.11811 0.865758
-0.350508 0.936446 0.0145968
0.406618 0.492678 -0.76937
0.062967 -0.078933 0.994889
0.457252 -0.870274 0.183148
0.839355 0.436959 -0.323342
0.729426 0.645081 -0.227615
0.768429 -0.62823 -0.121833
0.282493 -0.325682 -0.902291
-0.895744 -0.414004 -0.161997
-0.466688 0.881937 -0.0662585
0.440179 -0.849088 -0.292048
-0.148309 -0.980984 0.125196
-0.230304 -0.755011 0.613937
-0.96578 -0.162882 0.201838
0.314883 -0.250834 -0.915385
-0.756604 0.284369 -0.588799
-0.893552 -0.421621 -0.154273
-0.637563 0.138371 0.75787
0.128362 0.0437004 -0.990764
0.356929 -0.773832 0.523245
0.522106 0.581098 0.624284
-0.29498 0.0359212 -0.954828
0.105395 0.543469 0.832787
0.216643 0.580375 -0.785003
-0.162741 -0.17067 -0.971796
0.238019 0.413782 -0.87871
-0.236748 -0.408229 -0.881646
-0.555748 0.725024 -0.406797
0.238708 0.950078 0.200922
0.0223679 -0.731386 -0.681596
-0.271521 -0.239101 -0.932259
0.563662 -0.338912 -0.753275
0.167048 0.919217 -0.356561
0.603403 0.774647 0.189281
ITEM: TIMESTEP
9050
ITEM: NUMBER OF ATOMS
54
ITEM: BOX BOUNDS pp pp pp
0.0000000000000000e+00 8.6303750400000006e+00
0.0000000000000000e+00 8.6303750400000006e+00
0.0000000000000000e+00 8.6303750400000006e+00
ITEM: ATOMS c_outsp[1] c_outsp[2] c_outsp[3]
0.633847 -0.592044 -0.497716
0.630187 -0.763045 -0.143623
-0.638666 0.461854 0.615465
0.481153 0.288602 0.827768
-0.399895 -0.829464 0.389966
0.907148 -0.174224 -0.383051
0.262436 -0.350049 0.899218
-0.363191 -0.549587 -0.75236
-0.436522 -0.829522 -0.348342
-0.949757 -0.0474287 0.309374
0.0804707 -0.964303 -0.252279
-0.923943 -0.268957 -0.272012
-0.659042 0.588735 0.468034
0.0102937 0.840244 -0.542111
0.932667 0.359391 -0.0311544
-0.551375 -0.387211 -0.738954
0.394521 -0.225377 -0.890819
0.749963 0.381626 -0.540294
-0.972373 0.110913 -0.2054
0.50725 0.0981306 0.856194
-0.33744 0.939753 0.0547624
0.382218 0.501815 -0.775945
0.0952848 -0.0720258 0.992841
0.448793 -0.880652 0.15178
0.864203 0.3951 -0.311527
0.771566 0.589762 -0.238465
0.769967 -0.622092 -0.141959
0.300386 -0.319277 -0.898794
-0.888775 -0.41524 -0.194047
-0.439489 0.893578 -0.0914772
0.423132 -0.869925 -0.253356
-0.167898 -0.979228 0.113678
-0.275397 -0.755288 0.594724
-0.967601 -0.158536 0.196506
0.326552 -0.26864 -0.906199
-0.719281 0.289442 -0.631553
-0.910283 -0.388314 -0.143516
-0.653453 0.159358 0.740003
0.136031 0.0217221 -0.990466
0.323027 -0.761875 0.561426
0.527855 0.552649 0.644941
-0.296464 0.0439228 -0.954034
0.158437 0.567755 0.807807
0.243572 0.567456 -0.786553
-0.16448 -0.186808 -0.968529
0.223312 0.412971 -0.882942
-0.273176 -0.395903 -0.876719
-0.511888 0.758508 -0.403283
0.277913 0.931651 0.234074
-0.0428334 -0.748916 -0.66128
-0.308246 -0.200362 -0.929968
0.501474 -0.348771 -0.791759
0.229746 0.897266 -0.377002
0.658105 0.720758 0.217729
ITEM: TIMESTEP
9055
ITEM: NUMBER OF ATOMS
54
ITEM: BOX BOUNDS pp pp pp
0.0000000000000000e+00 8.6303750400000006e+00
0.0000000000000000e+00 8.6303750400000006e+00
0.0000000000000000e+00 8.6303750400000006e+00
ITEM: ATOMS c_outsp[1] c_outsp[2] c_outsp[3]
0.645982 -0.614916 -0.452311
0.626529 -0.765435 -0.146874
-0.636896 0.485338 0.599007
0.482283 0.231874 0.844771
-0.422295 -0.810521 0.405861
0.922716 -0.149218 -0.355428
0.214302 -0.337273 0.916691
-0.370321 -0.557586 -0.74294
-0.457422 -0.8177 -0.349474
-0.968317 -0.0299857 0.247917
0.0901668 -0.966533 -0.240174
-0.928248 -0.232447 -0.290387
-0.681094 0.568394 0.461562
-0.00607077 0.842627 -0.538464
0.939554 0.338929 -0.0486284
-0.568142 -0.348334 -0.745572
0.419929 -0.207927 -0.883417
0.735534 0.421199 -0.530642
-0.973337 0.138454 -0.182879
0.526068 0.0773989 0.846913
-0.324263 0.941248 0.0943708
0.357774 0.511532 -0.781238
0.128094 -0.0662158 0.989549
0.440083 -0.889906 0.119974
0.887008 0.350278 -0.300869
0.809373 0.532187 -0.248379
0.771083 -0.61599 -0.161204
0.318646 -0.311065 -0.895379
-0.879802 -0.418128 -0.226091
-0.410882 0.904242 -0.116281
0.403935 -0.889308 -0.214403
-0.186156 -0.977152 0.102562
-0.31836 -0.753258 0.575542
-0.969441 -0.1536 0.191286
0.337878 -0.286398 -0.896557
-0.680774 0.289987 -0.672647
-0.925754 -0.353637 -0.133871
-0.668725 0.181694 0.720968
0.142956 -0.00286838 -0.989725
0.288236 -0.747921 0.597941
0.532418 0.523853 0.664913
-0.297912 0.0516687 -0.953194
0.211219 0.590231 0.779111
0.269199 0.552426 -0.788896
-0.167496 -0.204124 -0.964509
0.209408 0.414627 -0.885569
-0.30944 -0.380024 -0.871682
-0.466109 0.789125 -0.400031
0.317941 0.910166 0.265541
-0.109182 -0.761079 -0.639404
-0.339861 -0.159464 -0.926858
0.438379 -0.352318 -0.826859
0.290465 0.870634 -0.397022
0.709189 0.662118 0.242179
ITEM: TIMESTEP
9060
ITEM: NUMBER OF ATOMS
54
ITEM: BOX BOUNDS pp pp pp
0.0000000000000000e+00 8.6303750400000006e+00
0.0000000000000000e+00 8.6303750400000006e+00
0.0000000000000000e+00 8.6303750400000006e+00
ITEM: ATOMS c_outsp[1] c_outsp[2] c_outsp[3]
0.654997 -0.637407 -0.405821
0.623404 -0.767385 -0.149963
-0.634615 0.508327 0.582123
0.482749 0.174217 0.858255
-0.44552 -0.789846 0.421491
0.937221 -0.124818 -0.325634
0.166583 -0.322923 0.931649
-0.377636 -0.563414 -0.734817
-0.478377 -0.804555 -0.351919
-0.982426 -0.0111526 0.186319
0.0996795 -0.968766 -0.227062
-0.930626 -0.195854 -0.309155
-0.702271 0.547074 0.455549
-0.0226247 0.84532 -0.533781
0.945395 0.31928 -0.0654922
-0.582643 -0.308974 -0.751706
0.445867 -0.191985 -0.874268
0.721247 0.460505 -0.517434
-0.972901 0.166637 -0.160299
0.542787 0.0560394 0.837999
-0.311158 0.940964 0.133294
0.33342 0.521804 -0.785208
0.161325 -0.0615053 0.984983
0.431099 -0.898021 0.0878203
0.90748 0.302628 -0.291369
0.842784 0.472746 -0.257345
0.771796 -0.609999 -0.179531
0.337312 -0.301077 -0.891949
-0.868783 -0.422712 -0.257938
-0.380954 0.913844 -0.140579
0.382726 -0.907078 -0.175299
-0.203071 -0.974841 0.0919032
-0.359091 -0.749172 0.556592
-0.971323 -0.147983 0.1861
0.348819 -0.304129 -0.886471
-0.64147 0.286011 -0.711838
-0.939876 -0.317657 -0.125404
-0.683254 0.205387 0.7007
0.148809 -0.0300325 -0.98841
0.252696 -0.731999 0.632711
0.535829 0.494772 0.684169
-0.299356 0.0592237 -0.952302
0.263434 0.610651 0.746798
0.293273 0.535399 -0.792047
-0.171832 -0.222537 -0.959662
0.196625 0.41859 -0.886635
-0.34521 -0.360579 -0.866495
-0.41859 0.816738 -0.397141
0.358506 0.885645 0.295137
-0.176164 -0.767738 -0.616072
-0.366298 -0.116973 -0.923116
0.375216 -0.349567 -0.858496
0.348746 0.839513 -0.416647
0.756289 0.599263 0.26251
ITEM: TIMESTEP
9065
ITEM: NUMBER OF ATOMS
54
ITEM: BOX BOUNDS pp pp pp
0.0000000000000000e+00 8.6303750400000006e+00
0.0000000000000000e+00 8.6303750400000006e+00
0.0000000000000000e+00 8.6303750400000006e+00
ITEM: ATOMS c_outsp[1] c_outsp[2] c_outsp[3]
0.660943 -0.659301 -0.358437
0.620806 -0.768914 -0.152876
-0.631891 0.530775 0.564794
0.482561 0.11593 0.868156
-0.469391 -0.767366 0.436831
0.950517 -0.101022 -0.293789
0.119414 -0.307102 0.944155
-0.38507 -0.567111 -0.728084
-0.499255 -0.790062 -0.355732
-0.99212 0.0089467 0.124972
0.108915 -0.970969 -0.21297
-0.931012 -0.159396 -0.328345
-0.722587 0.524921 0.449807
-0.0392699 0.848347 -0.527983
0.950293 0.300454 -0.0816779
-0.59492 -0.269337 -0.757316
0.47218 -0.177636 -0.863419
0.707209 0.499228 -0.500626
-0.971012 0.195372 -0.137717
0.557428 0.0341631 0.829522
-0.298296 0.938955 0.171414
0.309296 0.532602 -0.787827
0.194904 -0.0578912 0.979112
0.421823 -0.904983 0.0554087
0.925337 0.252305 -0.283007
0.871772 0.411816 -0.26537
0.772127 -0.604191 -0.196906
0.356408 -0.28936 -0.888394
-0.855689 -0.429017 -0.289381
-0.349805 0.922306 -0.164283
0.359659 -0.923096 -0.136157
-0.218638 -0.972376 0.0817495
-0.397513 -0.74329 0.538056
-0.973262 -0.141597 0.180865
0.359327 -0.321854 -0.875953
-0.601764 0.277558 -0.748894
-0.952565 -0.280454 -0.118174
-0.696906 0.230434 0.679133
0.153259 -0.0596828 -0.986382
0.216554 -0.714139 0.665665
0.538126 0.465468 0.702681
-0.300817 0.0666547 -0.95135
0.314772 0.628794 0.711011
0.315555 0.516516 -0.796013
-0.177514 -0.241958 -0.953911
0.185256 0.424671 -0.886191
-0.38015 -0.337589 -0.861115
-0.369522 0.841219 -0.39472
0.399326 0.858141 0.322696
-0.243254 -0.768809 -0.591405
-0.387555 -0.0734388 -0.918917
0.31282 -0.340619 -0.886635
0.404146 0.804141 -0.435917
0.799085 0.532748 0.278643
ITEM: TIMESTEP
9070
ITEM: NUMBER OF ATOMS
54
ITEM: BOX BOUNDS pp pp pp
0.0000000000000000e+00 8.6303750400000006e+00
0.0000000000000000e+00 8.6303750400000006e+00
0.0000000000000000e+00 8.6303750400000006e+00
ITEM: ATOMS c_outsp[1] c_outsp[2] c_outsp[3]
0.663892 -0.68039 -0.31035
0.618725 -0.770044 -0.155603
-0.628796 0.55263 0.547006
0.481743 0.0573142 0.874436
-0.493707 -0.743015 0.451865
0.962462 -0.0778243 -0.260018
0.0729175 -0.289913 0.954271
-0.392541 -0.568725 -0.722816
-0.519916 -0.774204 -0.360964
-0.997477 0.030181 0.0642507
0.117782 -0.973114 -0.197933
-0.92936 -0.123305 -0.347973
-0.742064 0.50208 0.444136
-0.0558962 0.851728 -0.520994
0.954353 0.282449 -0.0971273
-0.605031 -0.229624 -0.762372
0.498709 -0.164951 -0.85093
0.693523 0.53705 -0.480213
-0.967627 0.224563 -0.115191
0.570017 0.0118669 0.821547
-0.285828 0.935296 0.208623
0.28555 0.543896 -0.789074
0.228759 -0.0553648 0.971907
0.412246 -0.910786 0.0228294
0.940302 0.199493 -0.275744
0.896341 0.349761 -0.27247
0.7721 -0.598635 -0.213304
0.375944 -0.275969 -0.884594
-0.840508 -0.437057 -0.320199
-0.317548 0.929559 -0.187308
0.334896 -0.93724 -0.0970902
-0.232855 -0.969832 0.0721422
-0.433579 -0.735874 0.520096
-0.975269 -0.134355 0.175498
0.369347 -0.339597 -0.865018
-0.562054 0.264707 -0.783598
-0.963735 -0.242112 -0.112237
-0.709538 0.256816 0.656202
0.15598 -0.0916811 -0.983496
0.179965 -0.694377 0.696745
0.539347 0.435996 0.720425
-0.302307 0.0740295 -0.950332
0.364927 0.644469 0.671929
0.335819 0.495938 -0.800794
-0.184557 -0.262289 -0.947176
0.17556 0.432661 -0.884298
-0.413922 -0.311113 -0.855498
-0.319108 0.862449 -0.392875
0.440118 0.827731 0.348077
-0.309928 -0.764267 -0.565545
-0.40369 -0.0293812 -0.914424
0.252003 -0.325669 -0.911282
0.456251 0.764797 -0.454885
0.837307 0.463146 0.290539
ITEM: TIMESTEP
9075
ITEM: NUMBER OF ATOMS
54
ITEM: BOX BOUNDS pp pp pp
0.0000000000000000e+00 8.6303750400000006e+00
0.0000000000000000e+00 8.6303750400000006e+00
0.0000000000000000e+00 8.6303750400000006e+00
ITEM: ATOMS c_outsp[1] c_outsp[2] c_outsp[3]
0.663941 -0.700477 -0.261754
0.617147 -0.770793 -0.158138
-0.625404 0.573842 0.52875
0.48034 -0.00132772 0.877082
-0.518246 -0.716742 0.466585
0.972921 -0.0552102 -0.224446
0.0272012 -0.271457 0.962066
-0.399953 -0.568309 -0.71907
-0.540207 -0.756972 -0.367654
-0.998615 0.0524136 0.00451323
0.12619 -0.97517 -0.18199
-0.925651 -0.087822 -0.368046
-0.760733 0.4787 0.438328
-0.0723826 0.855482 -0.512749
0.957677 0.265251 -0.111791
-0.613048 -0.190022 -0.766853
0.525292 -0.15398 -0.836874
0.680284 0.573653 -0.45622
-0.962712 0.25412 -0.0927806
0.580587 -0.010767 0.814127
-0.273886 0.930079 0.244827
0.262331 0.555651 -0.788945
0.262819 -0.0539125 0.963338
0.402365 -0.915427 -0.00982897
0.952107 0.144396 -0.269522
0.916523 0.286924 -0.278676
0.771738 -0.593394 -0.228702
0.395915 -0.260977 -0.880422
-0.823247 -0.446829 -0.350155
-0.284308 0.935547 -0.209572
0.308605 -0.949407 -0.0582123
-0.245727 -0.967282 0.0631149
-0.467264 -0.727189 0.502852
-0.977348 -0.126174 0.169916
0.378819 -0.357379 -0.853684
-0.522742 0.247575 -0.81575
-0.973301 -0.202727 -0.107643
-0.720996 0.284502 0.631842
0.156656 -0.125838 -0.979604
0.143091 -0.672749 0.725902
0.539535 0.406412 0.737381
-0.303828 0.0814157 -0.949242
0.413596 0.657515 0.629771
0.353856 0.473844 -0.806385
-0.192961 -0.283429 -0.93938
0.167765 0.442331 -0.881021
-0.446193 -0.28124 -0.849598
-0.267566 0.880322 -0.391716
0.480604 0.794518 0.371161
-0.37567 -0.754143 -0.538647
-0.414817 0.0147081 -0.909786
0.193544 -0.30499 -0.932481
0.504675 0.721798 -0.473615
0.870728 0.391038 0.298198
ITEM: TIMESTEP
9080
ITEM: NUMBER OF ATOMS
54
ITEM: BOX BOUNDS pp pp pp
0.0000000000000000e+00 8.6303750400000006e+00
0.0000000000000000e+00 8.6303750400000006e+00
0.0000000000000000e+00 8.6303750400000006e+00
ITEM: ATOMS c_outsp[1] c_outsp[2] c_outsp[3]
0.660667 -0.720306 -0.211373
0.615873 -0.770914 -0.162455
-0.622017 0.596199 0.507585
0.477871 -0.0562045 0.87663
-0.541364 -0.690961 0.47906
0.981518 -0.0293596 -0.189104
-0.0162609 -0.253242 0.967266
-0.40854 -0.5663 -0.715821
-0.561756 -0.736328 -0.377163
-0.995668 0.075479 -0.0542887
0.136217 -0.976626 -0.166271
-0.921166 -0.053035 -0.38554
-0.780106 0.452166 0.432413
-0.0880798 0.858805 -0.504674
0.961201 0.246773 -0.123271
-0.618309 -0.153867 -0.770726
0.551958 -0.141965 -0.821698
0.666581 0.611588 -0.42618
-0.957616 0.279091 -0.0712792
0.590932 -0.0328972 0.80605
-0.262511 0.923482 0.279765
0.241273 0.57026 -0.785233
0.295685 -0.0542725 0.953743
0.391643 -0.919121 -0.0428062
0.960713 0.0881996 -0.263155
0.932878 0.222985 -0.282873
0.773208 -0.585891 -0.242655
0.416268 -0.242194 -0.876392
-0.804807 -0.459802 -0.375324
-0.251762 0.939154 -0.233678
0.28053 -0.959618 -0.0209007