ITEM: TIMESTEP
4000
ITEM: NUMBER OF ATOMS
54
ITEM: BOX BOUNDS pp pp pp
0.0000000000000000e+00 8.6303750400000006e+00
0.0000000000000000e+00 8.6303750400000006e+00
0.0000000000000000e+00 8.6303750400000006e+00
ITEM: ATOMS c_outsp[1] c_outsp[2] c_outsp[3]
0.0279904 0.342257 -0.93919
0.226084 0.519222 -0.824193
-0.953947 0.112632 -0.278027
0.250194 -0.891054 -0.378717
-0.2087 0.226612 0.951363
-0.35245 -0.183915 -0.917581
0.925883 0.339437 -0.165904
0.555772 0.802982 -0.215261
-0.162293 0.819975 -0.54891
-0.181556 -0.974905 0.128835
-0.407653 -0.652154 0.639151
0.33931 0.518563 -0.784832
0.0584861 -0.922431 -0.381707
-0.473849 -0.101941 -0.874686
0.81879 0.473697 0.324335
-0.899498 -0.332745 0.283169
0.644936 -0.557508 -0.522726
-0.288724 -0.380255 -0.878661
0.593789 -0.579312 -0.558402
0.765193 -0.309735 0.564397
0.397635 -0.864685 0.306931
0.0759162 0.434331 -0.897548
0.172147 -0.944519 0.27973
0.394092 0.300055 -0.868711
-0.597709 -0.799257 -0.0627105
-0.60082 -0.757734 0.254663
0.323831 0.720704 -0.612959
-0.601466 0.729476 0.325735
-0.0381769 -0.84816 0.528363
0.104762 0.963844 0.24501
0.273214 -0.951429 0.141908
-0.251646 0.348148 -0.903032
0.400526 0.849868 -0.342495
0.564557 0.353866 -0.74569
0.390709 0.637023 0.664491
-0.541376 0.0833274 -0.836641
0.269685 0.792233 0.547391
-0.392392 -0.919631 0.0174992
-0.521623 0.322935 -0.789698
-0.570719 0.763825 -0.301414
-0.955154 -0.293699 -0.0377017
0.469542 0.205941 -0.858556
-0.135246 -0.586782 0.79837
0.432045 0.66201 -0.612438
-0.675121 -0.585713 -0.448499
0.197799 -0.0907867 0.976029
0.818062 -0.0404674 0.573705
0.216533 -0.563501 -0.797233
-0.369841 0.403034 0.837126
0.126124 -0.984109 -0.124989
-0.23854 -0.0374317 -0.970411
0.89549 0.407238 0.179596
-0.264079 0.523481 -0.81008
-0.646485 -0.482908 0.590641
ITEM: TIMESTEP
4005
ITEM: NUMBER OF ATOMS
54
ITEM: BOX BOUNDS pp pp pp
0.0000000000000000e+00 8.6303750400000006e+00
0.0000000000000000e+00 8.6303750400000006e+00
0.0000000000000000e+00 8.6303750400000006e+00
ITEM: ATOMS c_outsp[1] c_outsp[2] c_outsp[3]
0.0632847 0.31095 -0.948317
0.257929 0.535014 -0.804508
-0.950344 0.166724 -0.262772
0.224656 -0.883422 -0.411212
-0.195299 0.240418 0.950819
-0.338926 -0.163725 -0.926457
0.939023 0.287549 -0.188552
0.586874 0.783001 -0.206125
-0.150518 0.810598 -0.565929
-0.219502 -0.965891 0.137383
-0.414998 -0.630762 0.65568
0.375009 0.485927 -0.789457
0.0813019 -0.923013 -0.37608
-0.45405 -0.101662 -0.885157
0.820011 0.428522 0.379408
-0.914332 -0.289153 0.283526
0.613449 -0.557631 -0.559221
-0.262635 -0.389106 -0.88296
0.561763 -0.575662 -0.594168
0.736844 -0.324989 0.592827
0.353384 -0.878794 0.320689
0.0816047 0.442951 -0.892824
0.131564 -0.953767 0.27022
0.410855 0.26269 -0.873036
-0.615252 -0.783962 -0.0828714
-0.603846 -0.761853 0.234415
0.34424 0.690591 -0.636068
-0.576455 0.757808 0.305657
-0.0943485 -0.848666 0.520446
0.125744 0.960204 0.249392
0.218339 -0.958672 0.182419
-0.253702 0.39522 -0.882857
0.435113 0.846529 -0.306702
0.568001 0.351807 -0.744048
0.419413 0.628975 0.654586
-0.578085 0.0933424 -0.81062
0.33186 0.78141 0.528458
-0.407073 -0.911773 0.0544241
-0.491818 0.321468 -0.809181
-0.54774 0.783865 -0.292466
-0.958647 -0.283634 -0.023382
0.421489 0.202083 -0.88403
-0.183677 -0.602264 0.776879
0.419439 0.692417 -0.587052
-0.670807 -0.561767 -0.484185
0.199286 -0.0698631 0.977448
0.81147 -0.118714 0.57221
0.25328 -0.554791 -0.7925
-0.349527 0.393549 0.850265
0.0777937 -0.990937 -0.109504
-0.226832 -0.00904765 -0.973892
0.905089 0.390058 0.169319
-0.254684 0.546612 -0.797716
-0.654978 -0.476816 0.586217
ITEM: TIMESTEP
4010
ITEM: NUMBER OF ATOMS
54
ITEM: BOX BOUNDS pp pp pp
0.0000000000000000e+00 8.6303750400000006e+00
0.0000000000000000e+00 8.6303750400000006e+00
0.0000000000000000e+00 8.6303750400000006e+00
ITEM: ATOMS c_outsp[1] c_outsp[2] c_outsp[3]
0.0949327 0.278757 -0.955658
0.289962 0.548902 -0.783982
-0.94321 0.221149 -0.247888
0.201455 -0.873459 -0.443266
-0.181533 0.253783 0.950074
-0.324447 -0.144601 -0.934786
0.948986 0.234387 -0.210922
0.61662 0.762227 -0.196953
-0.13839 0.80035 -0.583342
-0.256286 -0.955634 0.145194
-0.420636 -0.610523 0.671065
0.409829 0.450695 -0.793041
0.103328 -0.92397 -0.368242
-0.434901 -0.101108 -0.894784
0.817584 0.381079 0.431666
-0.236464 -0.399111 -0.885887
0.530577 -0.568807 -0.628448
0.706577 -0.339961 0.620626
0.308252 -0.890848 0.333722
-0.927626 -0.244679 0.282209
0.580883 -0.554909 -0.595526
0.0879086 0.45138 -0.887991
0.0922316 -0.960746 0.261649
0.425949 0.224351 -0.87649
-0.630328 -0.769311 -0.104148
-0.607828 -0.764611 0.214277
0.365874 0.659318 -0.656838
-0.549301 0.785192 0.285903
-0.149601 -0.846496 0.510944
0.146746 0.956029 0.253916
0.162874 -0.961794 0.220055
-0.25406 0.442836 -0.859854
0.468979 0.840574 -0.271098
0.571208 0.348942 -0.742941
0.447831 0.620097 0.644148
-0.612574 0.105926 -0.783283
0.394279 0.76656 0.506883
-0.422571 -0.901739 0.0911039
-0.461927 0.317588 -0.828107
-0.52411 0.803343 -0.282753
-0.961526 -0.274512 -0.0105474
0.371523 0.200746 -0.906461
-0.232452 -0.616071 0.75261
0.405708 0.721263 -0.561409
-0.66424 -0.538098 -0.518879
0.201988 -0.0489317 0.978165
0.800757 -0.197124 0.565624
0.292288 -0.545805 -0.78528
-0.32997 0.384084 0.862322
0.0289154 -0.995151 -0.0940162
-0.213982 0.0157233 -0.976711
0.913824 0.373549 0.159334
-0.245788 0.568096 -0.785401
-0.664087 -0.468977 0.58228
ITEM: TIMESTEP
4015
ITEM: NUMBER OF ATOMS
54
ITEM: BOX BOUNDS pp pp pp
0.0000000000000000e+00 8.6303750400000006e+00
0.0000000000000000e+00 8.6303750400000006e+00
0.0000000000000000e+00 8.6303750400000006e+00
ITEM: ATOMS c_outsp[1] c_outsp[2] c_outsp[3]
0.123443 0.245448 -0.961518
0.323125 0.560552 -0.762477
-0.932524 0.275587 -0.233346
0.180679 -0.861401 -0.474703
-0.167452 0.266742 0.949109
-0.309095 -0.126546 -0.942574
0.955628 0.18025 -0.23299
0.645375 0.740205 -0.188649
-0.126271 0.789817 -0.600204
-0.29295 -0.943973 0.151974
-0.425237 -0.591047 0.685446
0.443605 0.412991 -0.795395
0.124373 -0.925288 -0.358294
-0.415341 -0.101033 -0.904038
0.810954 0.332456 0.481483
-0.210375 -0.410226 -0.887388
0.500406 -0.559036 -0.661115
0.67443 -0.35452 0.647657
0.262265 -0.900819 0.346039
-0.939274 -0.199403 0.27929
0.547406 -0.549205 -0.631444
0.0947791 0.459622 -0.883043
0.053051 -0.965882 0.253491
0.440445 0.185493 -0.878408
-0.643952 -0.754616 -0.126018
-0.612079 -0.7667 0.193728
0.38861 0.627005 -0.675165
-0.520091 0.811487 0.266449
-0.20374 -0.84174 0.499964
0.167758 0.951316 0.258565
0.107089 -0.960916 0.255288
-0.252316 0.489486 -0.834709
0.502067 0.832064 -0.235791
0.574147 0.34523 -0.742409
0.475937 0.610391 0.633171
-0.644685 0.120878 -0.754831
0.455721 0.748002 0.482505
-0.438019 -0.889874 0.127529
-0.432091 0.311321 -0.84639
-0.499576 0.822186 -0.272826
-0.964238 -0.265034 0.00136341
0.319981 0.202001 -0.925639
-0.281358 -0.628065 0.725515
0.390926 0.748459 -0.535711
-0.655566 -0.514802 -0.552461
0.20585 -0.0280479 0.978182
0.785681 -0.273863 0.554711
0.331961 -0.537252 -0.775347
-0.31121 0.374705 0.873352
-0.0202951 -0.996702 -0.0785736
-0.200737 0.0380115 -0.978907
0.922277 0.35644 0.149521
-0.236043 0.588528 -0.773252
-0.673426 -0.460735 0.578119
ITEM: TIMESTEP
4020
ITEM: NUMBER OF ATOMS
54
ITEM: BOX BOUNDS pp pp pp
0.0000000000000000e+00 8.6303750400000006e+00
0.0000000000000000e+00 8.6303750400000006e+00
0.0000000000000000e+00 8.6303750400000006e+00
ITEM: ATOMS c_outsp[1] c_outsp[2] c_outsp[3]
0.148925 0.211172 -0.966037
0.357558 0.569719 -0.739981
-0.9183 0.329717 -0.219114
0.162387 -0.847493 -0.505358
-0.153119 0.279331 0.947908
-0.292964 -0.109579 -0.949823
0.958842 0.125451 -0.254725
0.673232 0.716803 -0.181528
-0.114265 0.779249 -0.61621
-0.329759 -0.930817 0.157603
-0.429027 -0.572302 0.69886
0.47616 0.372967 -0.796346
0.144265 -0.92695 -0.346339
-0.395046 -0.101697 -0.913015
0.799985 0.28333 0.528912
-0.184492 -0.422396 -0.887437
0.471397 -0.54663 -0.692084
0.640424 -0.368552 0.673815
0.215482 -0.908665 0.357624
-0.949172 -0.153458 0.274816
0.513184 -0.540442 -0.666757
0.10218 0.467652 -0.877987
0.0136912 -0.969269 0.245624
0.454631 0.146308 -0.878581
-0.656393 -0.739696 -0.148315
-0.616294 -0.76837 0.172596
0.412329 0.593772 -0.690956
-0.488897 0.83656 0.247278
-0.256588 -0.834511 0.487601
0.188781 0.946052 0.263341
0.051405 -0.956169 0.288267
-0.248416 0.534603 -0.807768
0.534318 0.821061 -0.200905
0.576788 0.340655 -0.742476
0.503706 0.599877 0.621633
-0.674299 0.137984 -0.725453
0.515537 0.725913 0.45527
-0.453094 -0.876323 0.163597
-0.402425 0.302738 -0.863947
-0.474095 0.840313 -0.262882
-0.966913 -0.254799 0.0125134
0.267198 0.205886 -0.94139
-0.330176 -0.638113 0.695554
0.375149 0.773922 -0.510204
-0.644921 -0.491982 -0.584833
0.210814 -0.00723811 0.977499
0.766397 -0.348033 0.539916
0.371619 -0.52945 -0.762615
-0.293299 0.365448 0.883416
-0.0696342 -0.995568 -0.063214
-0.187415 0.0581052 -0.980561
0.930579 0.338307 0.139899
-0.225017 0.608073 -0.761324
-0.682914 -0.452516 0.573461
ITEM: TIMESTEP
4025
ITEM: NUMBER OF ATOMS
54
ITEM: BOX BOUNDS pp pp pp
0.0000000000000000e+00 8.6303750400000006e+00
0.0000000000000000e+00 8.6303750400000006e+00
0.0000000000000000e+00 8.6303750400000006e+00
ITEM: ATOMS c_outsp[1] c_outsp[2] c_outsp[3]
0.17133 0.176247 -0.969321
0.393046 0.576242 -0.716562
-0.900582 0.383226 -0.205158
0.146616 -0.831983 -0.535078
-0.138593 0.291584 0.946452
-0.276144 -0.0937166 -0.956536
0.958553 0.0703177 -0.276101
0.700147 0.692064 -0.175619
-0.102343 0.768719 -0.631345
-0.366633 -0.916147 0.162032
-0.432058 -0.554415 0.711301
0.507326 0.330799 -0.795734
0.162841 -0.928942 -0.33249
-0.374036 -0.103108 -0.921665
0.784768 0.234165 0.573852
-0.158936 -0.435559 -0.886018
0.443672 -0.531874 -0.721294
0.60459 -0.381936 0.698996
0.167968 -0.914344 0.36846
-0.957223 -0.106981 0.268848
0.478405 -0.528568 -0.701245
0.110078 0.475442 -0.872833
-0.0258097 -0.970891 0.238126
0.468415 0.106884 -0.877019
-0.667592 -0.724622 -0.171007
-0.620356 -0.769668 0.150898
0.43691 0.559739 -0.704132
-0.455799 0.860286 0.228373
-0.307988 -0.824929 0.473957
0.209821 0.940224 0.268242
-0.00372544 -0.947749 0.318996
-0.242424 0.578044 -0.779163
0.565675 0.807633 -0.166556
0.579098 0.335205 -0.743158
0.53111 0.588574 0.60951
-0.701326 0.157016 -0.695333
0.573326 0.700391 0.425148
-0.467727 -0.861132 0.199203
-0.373034 0.291917 -0.880699
-0.447695 0.857664 -0.252947
-0.969553 -0.243812 0.0228545
0.213533 0.212407 -0.953565
-0.37867 -0.646088 0.662706
0.35845 0.797597 -0.485131
-0.632453 -0.469736 -0.615915
0.216816 0.0134745 0.97612
0.743179 -0.419203 0.521492
0.410999 -0.52252 -0.747029
-0.276283 0.356346 0.892572
-0.118901 -0.991746 -0.0479802
-0.174155 0.0759022 -0.981789
0.938675 0.319143 0.130524
-0.21271 0.6267 -0.749667
-0.692565 -0.444331 0.568263
ITEM: TIMESTEP
4030
ITEM: NUMBER OF ATOMS
54
ITEM: BOX BOUNDS pp pp pp
0.0000000000000000e+00 8.6303750400000006e+00
0.0000000000000000e+00 8.6303750400000006e+00
0.0000000000000000e+00 8.6303750400000006e+00
ITEM: ATOMS c_outsp[1] c_outsp[2] c_outsp[3]
0.190642 0.140985 -0.971483
0.429356 0.579984 -0.692295
-0.879446 0.435805 -0.191437
0.133381 -0.815126 -0.563719
-0.123927 0.303535 0.944727
-0.258722 -0.0789698 -0.962718
0.954726 0.015187 -0.297097
0.726074 0.666027 -0.170949
-0.0904766 0.758296 -0.645601
-0.403489 -0.899944 0.165218
-0.434396 -0.537501 0.722767
0.536947 0.286678 -0.793412
0.179945 -0.931242 -0.316871
-0.352338 -0.105277 -0.929932
0.765429 0.185414 0.61623
-0.133819 -0.449647 -0.883125
0.417328 -0.515049 -0.748707
0.566973 -0.394546 0.723101
0.119794 -0.917807 0.378523
-0.963339 -0.0601216 0.261462
0.443276 -0.51356 -0.734685
0.118439 0.48297 -0.86759
-0.0654144 -0.970736 0.23107
0.481706 0.0673103 -0.873744
-0.677498 -0.709464 -0.194053
-0.624137 -0.770648 0.128661
0.462222 0.525026 -0.714631
-0.420884 0.882541 0.209709
-0.357804 -0.813124 0.459136
0.23089 0.933819 0.273262
-0.0578866 -0.93589 0.347504
-0.234401 0.619688 -0.749028
0.596088 0.791852 -0.132851
0.581044 0.328876 -0.744466
0.55812 0.576504 0.596779
-0.725711 0.177744 -0.664644
0.62868 0.671563 0.392128
-0.481849 -0.844365 0.234243
-0.344016 0.278949 -0.896572
-0.420403 0.874178 -0.24305
-0.97216 -0.232073 0.0323475
0.159359 0.221541 -0.962042
-0.426588 -0.651866 0.626971
0.340913 0.819452 -0.460735
-0.618315 -0.448153 -0.645636
0.223783 0.0340697 0.974043
0.716316 -0.486993 0.499729
0.449826 -0.516575 -0.728565
-0.2602 0.34743 0.900882
-0.1679 -0.985254 -0.0329211
-0.161101 0.0913201 -0.982704
0.946508 0.29895 0.121453
-0.199126 0.644374 -0.73833
-0.702389 -0.436187 0.562486
ITEM: TIMESTEP
4035
ITEM: NUMBER OF ATOMS
54
ITEM: BOX BOUNDS pp pp pp
0.0000000000000000e+00 8.6303750400000006e+00
0.0000000000000000e+00 8.6303750400000006e+00
0.0000000000000000e+00 8.6303750400000006e+00
ITEM: ATOMS c_outsp[1] c_outsp[2] c_outsp[3]
0.206879 0.105687 -0.972641
0.466245 0.580832 -0.66727
-0.854998 0.487161 -0.177911
0.122672 -0.797177 -0.591152
-0.109166 0.315215 0.942721
-0.240782 -0.0653477 -0.968377
0.947364 -0.0396013 -0.317699
0.750966 0.638732 -0.167546
-0.0786359 0.748045 -0.658973
-0.440237 -0.88219 0.167127
-0.436123 -0.521664 0.733255
0.564878 0.240816 -0.789253
0.195435 -0.933828 -0.299616
-0.329992 -0.108212 -0.937761
0.742128 0.137517 0.655999
-0.109247 -0.464584 -0.878764
0.392437 -0.496436 -0.774303
0.527632 -0.406255 0.74603
0.0710373 -0.919007 0.387788
-0.967444 -0.0130302 0.252748
0.408026 -0.495421 -0.766859
0.127234 0.490211 -0.862267
-0.105085 -0.968787 0.22452
0.494411 0.0276807 -0.868787
-0.686067 -0.694296 -0.217406
-0.627511 -0.771369 0.105924
0.488132 0.489752 -0.722405
-0.384244 0.903203 0.191261
-0.405923 -0.799228 0.44324
0.252003 0.92682 0.278387
-0.110705 -0.920861 0.373843
-0.2244 0.659425 -0.717498
0.625508 0.773798 -0.0998843
0.582591 0.321671 -0.746402
0.584703 0.563689 0.583419
-0.747422 0.199938 -0.63355
0.681193 0.639593 0.356225
-0.495389 -0.826097 0.268613
-0.315462 0.263932 -0.911495
-0.39225 0.889802 -0.233221
-0.974735 -0.219578 0.0409627
0.105065 0.233234 -0.966728
-0.473662 -0.655332 0.588374
0.322634 0.839479 -0.437244
-0.602663 -0.427317 -0.673942
0.231643 0.0545302 0.971271
0.68611 -0.551077 0.474939
0.48782 -0.511721 -0.70723
-0.245079 0.338731 0.908404
-0.216443 -0.976128 -0.0180903
-0.148402 0.104296 -0.983412
0.954019 0.277736 0.112739
-0.184277 0.661055 -0.727357
-0.712393 -0.428087 0.556092
ITEM: TIMESTEP
4040
ITEM: NUMBER OF ATOMS
54
ITEM: BOX BOUNDS pp pp pp
0.0000000000000000e+00 8.6303750400000006e+00
0.0000000000000000e+00 8.6303750400000006e+00
0.0000000000000000e+00 8.6303750400000006e+00
ITEM: ATOMS c_outsp[1] c_outsp[2] c_outsp[3]
0.220087 0.0706413 -0.972919
0.503463 0.578702 -0.641583
-0.82737 0.537016 -0.164535
0.114458 -0.778392 -0.617256
-0.0943504 0.32665 0.940424
-0.222404 -0.0528571 -0.973521
0.936507 -0.0937085 -0.337895
0.77477 0.610215 -0.165436
-0.0667919 0.738024 -0.67146
-0.476786 -0.862868 0.167731
-0.437335 -0.50699 0.742765
0.590987 0.193436 -0.783145
0.209177 -0.936675 -0.280865
-0.307044 -0.111917 -0.945092
0.715056 0.0908927 0.693133
-0.0853151 -0.480292 -0.87295
0.36905 -0.476304 -0.798083
0.486638 -0.416935 0.76769
0.0217831 -0.917895 0.396225
-0.969474 0.0341376 0.242807
0.372899 -0.474186 -0.797555
0.136436 0.497143 -0.856874
-0.144781 -0.965029 0.218533
0.506437 -0.0119096 -0.862195
-0.693262 -0.679191 -0.241012
-0.630346 -0.771893 0.0827384
0.5145 0.454036 -0.727421
-0.345977 0.922156 0.172998
-0.452249 -0.783373 0.426376
0.27318 0.919208 0.2836
-0.16185 -0.902959 0.398083
-0.212468 0.697159 -0.684709
0.653887 0.753554 -0.0677418
0.583702 0.313598 -0.748965
0.610827 0.550151 0.569407
-0.766459 0.223367 -0.602203
0.730462 0.604675 0.317481
-0.508282 -0.806421 0.302217
-0.287451 0.246973 -0.925406
-0.363268 0.904482 -0.223491
-0.977273 -0.206321 0.048679
0.0510482 0.247407 -0.967566
-0.51961 -0.656381 0.546964
0.303717 0.857691 -0.414876
-0.585659 -0.407302 -0.700791
0.240317 0.0748415 0.967805
0.652865 -0.611186 0.447458
0.5247 -0.50805 -0.683063
-0.230947 0.330274 0.915195
-0.264351 -0.96442 -0.00354597
-0.136209 0.114787 -0.984008
0.961148 0.255517 0.104429
-0.168179 0.676706 -0.716788
-0.72258 -0.420032 0.549046
ITEM: TIMESTEP
4045
ITEM: NUMBER OF ATOMS
54
ITEM: BOX BOUNDS pp pp pp
0.0000000000000000e+00 8.6303750400000006e+00
0.0000000000000000e+00 8.6303750400000006e+00
0.0000000000000000e+00 8.6303750400000006e+00
ITEM: ATOMS c_outsp[1] c_outsp[2] c_outsp[3]
0.227718 0.0337976 -0.97314
0.541149 0.574032 -0.614528
-0.797844 0.584802 -0.146462
0.106642 -0.757629 -0.643915
-0.0824228 0.341717 0.936181
-0.19947 -0.0445821 -0.978889
0.922473 -0.145609 -0.35755
0.797407 0.580424 -0.165073
-0.0561974 0.729108 -0.682088
-0.512433 -0.842208 0.167628
-0.438134 -0.495559 0.749973
0.614705 0.145066 -0.775302
0.225517 -0.938587 -0.261143
-0.287819 -0.116817 -0.950534
0.684802 0.0437284 0.727416
-0.0646626 -0.491714 -0.868353
0.351478 -0.456937 -0.817112
0.443907 -0.423434 0.789716
-0.024947 -0.914586 0.403622
-0.970108 0.0811678 0.228698
0.340906 -0.446165 -0.827478
0.143758 0.502876 -0.85232
-0.185029 -0.959194 0.213803
0.516861 -0.0500275 -0.854606
-0.699657 -0.662769 -0.266867
-0.630625 -0.773777 0.0598434
0.542895 0.415082 -0.730049
-0.307734 0.939197 0.152347
-0.496032 -0.766961 0.40709
0.294228 0.910605 0.290221
-0.208974 -0.881495 0.423434
-0.198673 0.732774 -0.650823
0.680671 0.731714 -0.0358027
0.583462 0.304792 -0.752777
0.635255 0.536143 0.555879
-0.784245 0.245931 -0.569629
0.775087 0.567965 0.276868
-0.517954 -0.78796 0.33293
-0.258594 0.228689 -0.938526
-0.334667 0.918492 -0.210644
-0.980091 -0.191605 0.0520557
-0.00489989 0.262107 -0.965026
-0.560733 -0.658479 0.50198
0.282221 0.875173 -0.392968
-0.563851 -0.389627 -0.728192
0.248413 0.0977861 0.963706
0.614539 -0.668952 0.418145
0.559604 -0.506157 -0.656238
-0.216568 0.319034 0.922668
-0.30791 -0.951297 0.0150544
-0.123395 0.123893 -0.984593
0.967474 0.234404 0.0951217
-0.152916 0.69313 -0.704406
-0.734557 -0.411552 0.539491
ITEM: TIMESTEP
4050
ITEM: NUMBER OF ATOMS
54
ITEM: BOX BOUNDS pp pp pp
0.0000000000000000e+00 8.6303750400000006e+00
0.0000000000000000e+00 8.6303750400000006e+00
0.0000000000000000e+00 8.6303750400000006e+00
ITEM: ATOMS c_outsp[1] c_outsp[2] c_outsp[3]
0.232324 -0.00215577 -0.972636
0.578675 0.566226 -0.586961
-0.765447 0.630498 -0.128696
0.101368 -0.736261 -0.669062
-0.0701424 0.356688 0.931587
-0.176553 -0.0375971 -0.983573
0.905295 -0.19609 -0.376815
0.818833 0.549461 -0.166144
-0.0452486 0.720571 -0.691903
-0.547755 -0.819979 0.166129
-0.438873 -0.485368 0.75618
0.636432 0.0958073 -0.76536
0.239691 -0.940736 -0.239924
-0.268096 -0.122444 -0.955579
0.650943 -0.00120817 0.759126
-0.0441451 -0.50395 -0.862604
0.335341 -0.436839 -0.834696
0.399955 -0.428642 0.810125
-0.0720242 -0.909104 0.410296
-0.968446 0.128088 0.213789
0.309487 -0.415347 -0.855398
0.151491 0.508349 -0.847722
-0.225179 -0.951481 0.209708
0.52666 -0.0878885 -0.84552
-0.704428 -0.646512 -0.292923
-0.630163 -0.775596 0.0366765
0.571365 0.375795 -0.729603
-0.268202 0.954301 0.131821
-0.538035 -0.748778 0.387105
0.315423 0.901349 0.29678
-0.254088 -0.857873 0.446647
-0.183143 0.76623 -0.615915
0.706387 0.707809 -0.00480523
0.582891 0.295137 -0.757055
0.659151 0.521611 0.541702
-0.79939 0.269284 -0.537086
0.815947 0.52887 0.233511
-0.527281 -0.768438 0.362597
-0.230367 0.208618 -0.950479
-0.305168 0.931464 -0.198108
-0.982878 -0.175969 0.0546479
-0.0597047 0.279122 -0.958398
-0.60042 -0.657982 0.454483
0.260246 0.890799 -0.372491
-0.541102 -0.372755 -0.753831
0.257408 0.12054 0.958755
0.57352 -0.722127 0.38679
0.592818 -0.50552 -0.62691
-0.203487 0.308112 0.929333
-0.35069 -0.935904 0.0331656
-0.111581 0.130275 -0.985179
0.973411 0.212112 0.0864842
-0.136377 0.708422 -0.692488
-0.746618 -0.403041 0.529263
ITEM: TIMESTEP
4055
ITEM: NUMBER OF ATOMS
54
ITEM: BOX BOUNDS pp pp pp
0.0000000000000000e+00 8.6303750400000006e+00
0.0000000000000000e+00 8.6303750400000006e+00
0.0000000000000000e+00 8.6303750400000006e+00
ITEM: ATOMS c_outsp[1] c_outsp[2] c_outsp[3]
0.234045 -0.036959 -0.971523
0.615773 0.55528 -0.559005
-0.7304 0.673905 -0.111215
0.0985682 -0.714553 -0.692603
-0.0575411 0.371546 0.92663
-0.15374 -0.0319037 -0.987596
0.885133 -0.244863 -0.395704
0.838982 0.517361 -0.168662
-0.033941 0.712438 -0.700914
-0.582645 -0.796165 0.163236
-0.439666 -0.476425 0.761389
0.656104 0.0459122 -0.753272
0.251588 -0.943105 -0.217387
-0.247948 -0.128791 -0.960174
0.613771 -0.0435601 0.788282
-0.0238536 -0.516964 -0.855675
0.32061 -0.416214 -0.850867
0.35489 -0.432469 0.828869
-0.119358 -0.901406 0.416198
-0.964462 0.174733 0.198195
0.27894 -0.381876 -0.881114
0.159631 0.513535 -0.84309
-0.265183 -0.941873 0.206286
0.535742 -0.125403 -0.835017
-0.707557 -0.630511 -0.319091
-0.628841 -0.77742 0.0133354
0.599732 0.336312 -0.726096
-0.227499 0.967385 0.1114
-0.578199 -0.728939 0.366515
0.336789 0.891415 0.303237
-0.296989 -0.832423 0.467834
-0.165925 0.797463 -0.580105
0.73098 0.681934 0.0251935
0.581937 0.28466 -0.761786
0.682488 0.506582 0.526864
-0.811965 0.293232 -0.504706
0.852664 0.487644 0.187527
-0.536215 -0.747972 0.391167
-0.202834 0.186893 -0.961212
-0.274809 0.943352 -0.18592
-0.985598 -0.159404 0.0564587
-0.112959 0.298298 -0.947765
-0.638365 -0.654819 0.404602
0.237911 0.904626 -0.353625
-0.517581 -0.356744 -0.777717
0.267205 0.143079 0.952959
0.530163 -0.770579 0.353745
0.624096 -0.506191 -0.59521
-0.19171 0.297536 0.935265
-0.392567 -0.918323 0.0507276
-0.100917 0.133963 -0.985834
0.97889 0.188688 0.0785525
-0.118595 0.722544 -0.681077
-0.758744 -0.394508 0.518335
ITEM: TIMESTEP
4060
ITEM: NUMBER OF ATOMS
54
ITEM: BOX BOUNDS pp pp pp
0.0000000000000000e+00 8.6303750400000006e+00
0.0000000000000000e+00 8.6303750400000006e+00
0.0000000000000000e+00 8.6303750400000006e+00
ITEM: ATOMS c_outsp[1] c_outsp[2] c_outsp[3]
0.233038 -0.0703766 -0.969918
0.652182 0.541223 -0.530788
-0.692933 0.714849 -0.0939926
0.0981518 -0.692764 -0.714454
-0.0446456 0.386273 0.921303
-0.131117 -0.0275007 -0.990985
0.862173 -0.291661 -0.414237
0.85778 0.48416 -0.172633
-0.0222735 0.704723 -0.709133
-0.616991 -0.77075 0.158958
-0.440634 -0.468721 0.765599
0.673673 -0.00436658 -0.739017
0.261111 -0.945672 -0.193715
-0.227458 -0.135847 -0.964266
0.573601 -0.0830023 0.814919
-0.00387525 -0.530711 -0.847544
0.307242 -0.395247 -0.865668
0.308824 -0.434828 0.845903
-0.166845 -0.891451 0.421281
-0.958148 0.220941 0.182039
0.249571 -0.345937 -0.904457
0.168181 0.518407 -0.838433
-0.304986 -0.930347 0.203562
0.544022 -0.16248 -0.823189
-0.709041 -0.614853 -0.345278
-0.626547 -0.779319 -0.0100699
0.627821 0.296765 -0.719564
-0.185743 0.97837 0.091064
-0.616481 -0.707561 0.345409
0.35835 0.880775 0.309549
-0.337518 -0.805478 0.48712
-0.147063 0.826417 -0.543514
0.754391 0.654188 0.05415
0.580549 0.273401 -0.766951
0.705235 0.491082 0.511352
-0.822057 0.317593 -0.472607
0.884882 0.444571 0.139069
-0.54471 -0.726685 0.418594
-0.17605 0.163646 -0.970683
-0.243631 0.954111 -0.174114
-0.98821 -0.141898 0.0574987
-0.164272 0.319456 -0.933254
-0.674257 -0.648942 0.352495
0.215339 0.916723 -0.336523
-0.493449 -0.341641 -0.799868
0.277709 0.16538 0.946323
0.484812 -0.814228 0.319359
0.653208 -0.508205 -0.56129
-0.181235 0.287328 0.94053
-0.433428 -0.898643 0.06768
-0.0915487 0.135002 -0.986607
0.983845 0.164186 0.0713547
-0.099607 0.735459 -0.670208
-0.77091 -0.385964 0.506684
ITEM: TIMESTEP
4065
ITEM: NUMBER OF ATOMS
54
ITEM: BOX BOUNDS pp pp pp
0.0000000000000000e+00 8.6303750400000006e+00
0.0000000000000000e+00 8.6303750400000006e+00
0.0000000000000000e+00 8.6303750400000006e+00
ITEM: ATOMS c_outsp[1] c_outsp[2] c_outsp[3]
0.229482 -0.102198 -0.967933
0.687651 0.524109 -0.50244
-0.653285 0.753186 -0.0770032
0.100009 -0.671145 -0.734549
-0.031477 0.400845 0.915605
-0.108765 -0.0243855 -0.993768
0.836624 -0.336241 -0.432438
0.875147 0.449901 -0.178062
-0.0102483 0.69744 -0.71657
-0.650673 -0.743719 0.153317
-0.441898 -0.462227 0.768813
0.689101 -0.0547809 -0.722592
0.268181 -0.948413 -0.169091
-0.206717 -0.143596 -0.967806
0.530767 -0.119244 0.839087
0.0157067 -0.545146 -0.838194
0.295183 -0.374112 -0.879152
0.261876 -0.435642 0.861184
-0.214375 -0.879203 0.425494
-0.949513 0.266555 0.165451
0.221685 -0.30775 -0.925281
0.177142 0.52294 -0.83376
-0.344524 -0.916887 0.201549
0.551422 -0.199032 -0.810136
-0.708887 -0.599626 -0.371387
-0.62318 -0.781364 -0.033418
0.655455 0.257288 -0.710057
-0.143054 0.98718 0.0707926
-0.652852 -0.684755 0.323875
0.380124 0.869403 0.315665
-0.375563 -0.777366 0.504633
-0.126604 0.853038 -0.506258
0.776563 0.624676 0.0820346
0.578674 0.261409 -0.772529
0.727366 0.475138 0.495159
-0.829766 0.342199 -0.440894
0.912266 0.399962 0.0883253
-0.552726 -0.704706 0.444841
-0.150061 0.139015 -0.978855
-0.211674 0.963699 -0.162724
-0.990668 -0.12344 0.0577862
-0.213275 0.34241 -0.915024
-0.707789 -0.640332 0.298346
0.192651 0.927171 -0.321309
-0.468865 -0.32748 -0.820318
0.288827 0.187425 0.938856
0.437801 -0.853046 0.283977
0.679944 -0.511572 -0.525328
-0.172058 0.277504 0.945192
-0.473169 -0.876962 0.0839623
-0.0836136 0.133457 -0.987521
0.98821 0.138664 0.0649113
-0.0794583 0.747128 -0.659913
-0.783091 -0.37742 0.49429
ITEM: TIMESTEP
4070
ITEM: NUMBER OF ATOMS
54
ITEM: BOX BOUNDS pp pp pp
0.0000000000000000e+00 8.6303750400000006e+00
0.0000000000000000e+00 8.6303750400000006e+00
0.0000000000000000e+00 8.6303750400000006e+00
ITEM: ATOMS c_outsp[1] c_outsp[2] c_outsp[3]
0.22273 -0.130597 -0.966093
0.721992 0.503004 -0.475094
-0.611693 0.788801 -0.0602082
0.104022 -0.649944 -0.752829
-0.0180535 0.415228 0.909538
-0.0867587 -0.0225475 -0.995974
0.808708 -0.378408 -0.450332
0.891841 0.412998 -0.184532
0.00204511 0.691613 -0.722265
-0.682596 -0.715992 0.146352
-0.444539 -0.455977 0.771019
0.702351 -0.105081 -0.704032
0.272728 -0.951299 -0.1437
-0.183997 -0.152817 -0.970975
0.484967 -0.153781 0.860906
0.0348195 -0.560213 -0.827616
0.284385 -0.352979 -0.891364
0.214176 -0.434838 0.874668
-0.261842 -0.864628 0.428787
-0.938589 0.311402 0.148593
0.195587 -0.267574 -0.943478
0.186522 0.527101 -0.82908
-0.385528 -0.900655 0.200471
0.558486 -0.233217 -0.796055
-0.706574 -0.585326 -0.397677
-0.619196 -0.783222 -0.0562007
0.682444 0.218045 -0.697658
-0.0995349 0.993749 0.0505594
-0.687296 -0.660623 0.301997
0.402133 0.857267 0.321532
-0.410598 -0.749414 0.519412
-0.104706 0.876659 -0.46958
0.797449 0.59349 0.108834
0.576274 0.248726 -0.778488
0.748848 0.458785 0.478271
-0.835206 0.366893 -0.40966
0.934081 0.355176 0.0366326
-0.560084 -0.681518 0.470999
-0.12492 0.113129 -0.985696
-0.179091 0.971746 -0.153742
-0.992836 -0.103718 0.0593163
-0.259641 0.366961 -0.893267
-0.738662 -0.629002 0.242353
0.169979 0.936052 -0.308079
-0.443966 -0.314292 -0.839115
0.300469 0.209199 0.930567
0.38959 -0.887495 0.246113
0.702966 -0.517733 -0.487639
-0.164155 0.26807 0.949311
-0.511699 -0.853381 0.0995256
-0.0760978 0.130843 -0.988478
0.991754 0.112673 0.0610586
-0.0584649 0.75643 -0.651457
-0.794995 -0.367814 0.482386
ITEM: TIMESTEP
4075
ITEM: NUMBER OF ATOMS
54
ITEM: BOX BOUNDS pp pp pp
0.0000000000000000e+00 8.6303750400000006e+00
0.0000000000000000e+00 8.6303750400000006e+00
0.0000000000000000e+00 8.6303750400000006e+00
ITEM: ATOMS c_outsp[1] c_outsp[2] c_outsp[3]
0.213716 -0.156451 -0.964287
0.754929 0.478661 -0.448293
-0.56839 0.821606 -0.0435554
0.110073 -0.629405 -0.769242
-0.0043922 0.429379 0.903114
-0.0651646 -0.0219671 -0.997633
0.778648 -0.418013 -0.467945
0.907054 0.374554 -0.192256
0.0145755 0.686607 -0.726883
-0.713357 -0.687082 0.137987
-0.44793 -0.450405 0.77233
0.713387 -0.155015 -0.68341
0.274695 -0.954299 -0.117715
-0.160642 -0.163061 -0.97345
0.436709 -0.185135 0.880347
0.0534053 -0.575852 -0.815808
0.274812 -0.332033 -0.902348
0.165872 -0.432356 0.886315
-0.309152 -0.847689 0.431102
-0.925438 0.355289 0.131657
0.171564 -0.225706 -0.958969
0.196335 0.530853 -0.824408
-0.426625 -0.88203 0.200034
0.564923 -0.266189 -0.781029
-0.702499 -0.571755 -0.423782
-0.614176 -0.785255 -0.0785004
0.708583 0.179236 -0.682485
-0.0552645 0.998011 0.0303306
-0.719811 -0.635255 0.279863
0.424399 0.844329 0.327099
-0.44308 -0.721285 0.532381
-0.081456 0.897778 -0.432851
0.81701 0.560706 0.13455
0.573329 0.235383 -0.784786
0.769644 0.442077 0.46067
-0.838496 0.391526 -0.378988
0.950607 0.309956 -0.0165123
-0.566641 -0.65774 0.496282
-0.100687 0.0861186 -0.991184
-0.14595 0.978477 -0.145881
-0.994688 -0.0830402 0.0608245
-0.303083 0.392912 -0.868194
-0.766587 -0.614999 0.18472
0.147468 0.943451 -0.296908
-0.418868 -0.3021 -0.856321
0.312544 0.230697 0.921464
0.340281 -0.91719 0.207296
0.722876 -0.52572 -0.448406
-0.157482 0.259017 0.952948
-0.548938 -0.828006 0.114337
-0.069902 0.126291 -0.989527
0.994576 0.0859276 0.0586058
-0.0365691 0.764117 -0.64404
-0.806717 -0.357974 0.470173
ITEM: TIMESTEP
4080
ITEM: NUMBER OF ATOMS
54
ITEM: BOX BOUNDS pp pp pp
0.0000000000000000e+00 8.6303750400000006e+00
0.0000000000000000e+00 8.6303750400000006e+00
0.0000000000000000e+00 8.6303750400000006e+00
ITEM: ATOMS c_outsp[1] c_outsp[2] c_outsp[3]
0.202885 -0.180012 -0.962514
0.786233 0.451448 -0.421939
-0.523606 0.851532 -0.02702
0.118001 -0.609752 -0.783759
0.00949732 0.443261 0.896342
-0.0440489 -0.0226331 -0.998773
0.74669 -0.454896 -0.485308
0.920456 0.335018 -0.201306
0.0273404 0.682184 -0.730669
-0.743086 -0.656792 0.128252
-0.451919 -0.445629 0.772776
0.722213 -0.204359 -0.660792
0.274047 -0.957371 -0.09132
-0.13721 -0.174128 -0.975117
0.386474 -0.212664 0.897447
0.0714006 -0.592007 -0.802764
0.266392 -0.31141 -0.912173
0.117093 -0.428152 0.896089
-0.356165 -0.828362 0.432392
-0.910141 0.398081 0.114786
0.14989 -0.182465 -0.97172
0.206589 0.534167 -0.819748
-0.467265 -0.861167 0.200137
0.570578 -0.29831 -0.765148
-0.696839 -0.558886 -0.449513
-0.607937 -0.78763 -0.100258
0.733729 0.141003 -0.66465
-0.0103687 0.999895 0.0100875
-0.7504 -0.608746 0.257543
0.44693 0.83056 0.332301
-0.473164 -0.693001 0.543936
-0.0569016 0.916529 -0.395901
0.835183 0.52643 0.159188
0.569787 0.221453 -0.791392
0.789726 0.42504 0.442351
-0.839763 0.415976 -0.348944