ITEM: TIMESTEP
1500
ITEM: NUMBER OF ATOMS
54
ITEM: BOX BOUNDS pp pp pp
0.0000000000000000e+00 8.6303750400000006e+00
0.0000000000000000e+00 8.6303750400000006e+00
0.0000000000000000e+00 8.6303750400000006e+00
ITEM: ATOMS c_outsp[1] c_outsp[2] c_outsp[3]
-0.166297 0.680123 0.713987
0.753879 -0.334616 0.56542
-0.341197 0.145573 -0.928651
-0.559389 -0.51746 0.647548
0.777706 -0.502582 -0.377604
0.561545 0.816763 -0.132532
-0.529605 0.774007 -0.347032
-0.177464 0.473108 -0.862946
0.917473 0.203926 -0.341552
0.163526 -0.832882 -0.528741
0.56219 -0.440442 -0.699966
-0.0457172 0.307504 -0.950448
-0.73746 -0.18366 -0.64994
-0.864223 -0.285158 -0.414492
0.254228 0.913674 -0.317126
0.774409 0.629451 0.0638888
-0.62571 -0.772231 0.110208
0.134787 0.611093 0.779998
0.485879 -0.558373 0.672414
-0.628427 -0.333619 0.702693
0.752759 0.290304 -0.590828
0.622647 -0.685863 0.376699
-0.0664271 -0.26481 -0.96201
-0.226785 -0.0485465 0.972734
-0.592884 -0.776269 0.214232
-0.0321136 -0.797761 0.602118
0.229493 0.933508 -0.275493
0.781912 -0.480399 -0.397279
0.21525 0.371156 0.903278
0.735858 -0.33893 0.586208
-0.875721 0.478048 0.0677007
-0.00455005 -0.598961 -0.800765
0.52568 -0.584645 -0.617941
-0.355323 0.881708 -0.310381
0.902721 0.314781 0.29327
-0.344251 -0.0666378 -0.93651
-0.838032 0.501718 -0.214435
0.279697 0.424831 -0.860981
0.318837 0.583163 -0.747171
-0.130787 -0.0996978 -0.986385
-0.660515 -0.701972 -0.266375
-0.511159 -0.132834 -0.849159
-0.245186 -0.569095 -0.784866
-0.874081 -0.146261 -0.463238
0.432215 0.823987 -0.366383
0.380906 -0.753371 -0.536045
-0.951948 0.0529297 -0.301652
-0.981751 0.186057 -0.0393365
0.797665 -0.298633 -0.523974
0.131421 0.886543 0.443587
0.525111 -0.363919 0.769299
-0.499699 -0.866199 -0.000938215
-0.137128 -0.73143 0.667987
0.386037 -0.196762 -0.901255
ITEM: TIMESTEP
1505
ITEM: NUMBER OF ATOMS
54
ITEM: BOX BOUNDS pp pp pp
0.0000000000000000e+00 8.6303750400000006e+00
0.0000000000000000e+00 8.6303750400000006e+00
0.0000000000000000e+00 8.6303750400000006e+00
ITEM: ATOMS c_outsp[1] c_outsp[2] c_outsp[3]
-0.166052 0.679012 0.715101
0.737598 -0.353684 0.575201
-0.355813 0.145699 -0.92313
-0.574385 -0.526545 0.626763
0.753455 -0.506711 -0.418986
0.575921 0.810352 -0.107913
-0.484234 0.807878 -0.335931
-0.171888 0.520558 -0.836346
0.928143 0.186363 -0.322211
0.157952 -0.830171 -0.534666
0.544756 -0.447223 -0.709389
-0.031718 0.332091 -0.942714
-0.733474 -0.178902 -0.655751
-0.867415 -0.264283 -0.4216
0.265363 0.902659 -0.338804
0.782389 0.617152 0.0836096
-0.637714 -0.766444 0.0767081
0.146851 0.603245 0.78392
0.473055 -0.544962 0.692268
-0.627729 -0.281206 0.725865
0.792419 0.250734 -0.556062
0.630455 -0.692367 0.350933
-0.0264635 -0.247475 -0.968533
-0.26234 -0.0616019 0.963007
-0.571719 -0.804126 0.162845
-0.0832433 -0.796125 0.599379
0.266635 0.933648 -0.239181
0.766621 -0.498906 -0.40421
0.238789 0.341323 0.909109
0.727081 -0.371137 0.57759
-0.861606 0.505612 0.0446383
-0.0702417 -0.593098 -0.80206
0.494152 -0.621158 -0.608257
-0.31622 0.896741 -0.309613
0.913683 0.271013 0.302877
-0.345527 -0.0420631 -0.937465
-0.811148 0.537182 -0.231244
0.269299 0.416307 -0.868427
0.354829 0.539428 -0.763619
-0.162165 -0.102115 -0.981466
-0.714283 -0.651968 -0.254436
-0.500158 -0.0998504 -0.860158
-0.26596 -0.574831 -0.773844
-0.879483 -0.137466 -0.455645
0.449798 0.802711 -0.391583
0.387416 -0.742722 -0.546143
-0.952214 0.0666053 -0.298081
-0.97365 0.222182 -0.0513974
0.811595 -0.330063 -0.482049
0.156461 0.883165 0.442199
0.506944 -0.367427 0.779747
-0.539301 -0.842065 0.00902722
-0.148535 -0.734617 0.662024
0.403018 -0.240407 -0.883052
ITEM: TIMESTEP
1510
ITEM: NUMBER OF ATOMS
54
ITEM: BOX BOUNDS pp pp pp
0.0000000000000000e+00 8.6303750400000006e+00
0.0000000000000000e+00 8.6303750400000006e+00
0.0000000000000000e+00 8.6303750400000006e+00
ITEM: ATOMS c_outsp[1] c_outsp[2] c_outsp[3]
-0.165395 0.678751 0.715501
0.721198 -0.370619 0.585248
-0.371179 0.145213 -0.917137
-0.589875 -0.534917 0.604906
0.728169 -0.508098 -0.460006
0.590066 0.803022 -0.0835292
-0.435937 0.839298 -0.324865
-0.16317 0.56606 -0.808054
0.938287 0.168234 -0.302182
0.152585 -0.826729 -0.541514
0.528087 -0.452938 -0.718311
-0.0156588 0.355927 -0.934383
-0.729447 -0.175273 -0.661201
-0.86976 -0.243859 -0.429011
0.276639 0.890836 -0.36039
0.790356 0.603722 0.104199
-0.649752 -0.759034 0.0411189
0.15896 0.595364 0.787574
0.459614 -0.532396 0.710851
-0.623343 -0.228322 0.747872
0.827623 0.208821 -0.520994
0.637337 -0.698799 0.324781
0.0145216 -0.230159 -0.973045
-0.298216 -0.0730902 0.951696
-0.546444 -0.829801 0.113265
-0.13587 -0.79309 0.593757
0.303729 0.930705 -0.203807
0.750306 -0.516883 -0.412156
0.260339 0.310723 0.914153
0.716456 -0.403488 0.569112
-0.84662 0.531779 0.0211048
-0.13567 -0.583487 -0.80071
0.461464 -0.655812 -0.597463
-0.277152 0.909605 -0.309525
0.922518 0.227228 0.311973
-0.345367 -0.0181065 -0.938293
-0.783047 0.570542 -0.247627
0.258062 0.408876 -0.875342
0.385943 0.49293 -0.779787
-0.194498 -0.102529 -0.97553
-0.763603 -0.598086 -0.243317
-0.487175 -0.068689 -0.870599
-0.286976 -0.579042 -0.763122
-0.88501 -0.127131 -0.447879
0.467271 0.779833 -0.416555
0.393282 -0.731605 -0.556851
-0.952529 0.0790952 -0.293993
-0.964306 0.25691 -0.064118
0.82287 -0.361228 -0.438633
0.181323 0.878673 0.441651
0.488688 -0.371076 0.789611
-0.577059 -0.816502 0.0180705
-0.160812 -0.738007 0.655351
0.418174 -0.283414 -0.863022
ITEM: TIMESTEP
1515
ITEM: NUMBER OF ATOMS
54
ITEM: BOX BOUNDS pp pp pp
0.0000000000000000e+00 8.6303750400000006e+00
0.0000000000000000e+00 8.6303750400000006e+00
0.0000000000000000e+00 8.6303750400000006e+00
ITEM: ATOMS c_outsp[1] c_outsp[2] c_outsp[3]
-0.164279 0.679421 0.715122
0.704802 -0.38547 0.595539
-0.38731 0.14416 -0.910609
-0.605872 -0.542456 0.581946
0.701967 -0.506668 -0.500529
0.603935 0.794817 -0.0594051
-0.384849 0.86796 -0.313905
-0.151403 0.609377 -0.778291
0.947852 0.149419 -0.281514
0.147466 -0.822557 -0.549231
0.51223 -0.457716 -0.726716
0.0024328 0.378877 -0.925444
-0.725475 -0.172734 -0.66622
-0.871287 -0.223907 -0.436721
0.288066 0.878189 -0.381841
0.798253 0.589078 0.125612
-0.661621 -0.74983 0.00357219
0.171114 0.58737 0.791022
0.445622 -0.520759 0.728169
-0.615259 -0.175209 0.768608
0.858307 0.164997 -0.485885
0.643221 -0.705201 0.298258
0.0563961 -0.212897 -0.975446
-0.334243 -0.0830323 0.938822
-0.517319 -0.853246 0.0659739
-0.18973 -0.788503 0.585035
0.340568 0.92481 -0.169526
0.733005 -0.534188 -0.421126
0.279899 0.279534 0.918432
0.703913 -0.435854 0.560837
-0.830886 0.556436 -0.00279789
-0.200451 -0.570147 -0.796713
0.427807 -0.688544 -0.585567
-0.23828 0.920344 -0.310143
0.929292 0.183512 0.320531
-0.343782 0.00514015 -0.939035
-0.753908 0.601788 -0.263577
0.246076 0.402552 -0.881702
0.41198 0.444125 -0.795629
-0.227609 -0.100836 -0.968518
-0.808223 -0.540793 -0.233063
-0.47241 -0.039458 -0.880495
-0.308133 -0.581753 -0.752739
-0.890557 -0.115249 -0.440029
0.484538 0.755337 -0.441236
0.398533 -0.720062 -0.56805
-0.952916 0.0904028 -0.289446
-0.953839 0.290175 -0.077396
0.831349 -0.392077 -0.393872
0.205959 0.873097 0.441907
0.470308 -0.374891 0.798916
-0.612938 -0.789696 0.0262227
-0.17392 -0.741559 0.647952
0.431606 -0.325685 -0.841217
ITEM: TIMESTEP
1520
ITEM: NUMBER OF ATOMS
54
ITEM: BOX BOUNDS pp pp pp
0.0000000000000000e+00 8.6303750400000006e+00
0.0000000000000000e+00 8.6303750400000006e+00
0.0000000000000000e+00 8.6303750400000006e+00
ITEM: ATOMS c_outsp[1] c_outsp[2] c_outsp[3]
-0.162638 0.681094 0.713905
0.688524 -0.398292 0.606051
-0.404208 0.142583 -0.903486
-0.622381 -0.549034 0.557856
0.674972 -0.502357 -0.540417
0.617486 0.785778 -0.0355614
-0.331145 0.893564 -0.303129
-0.136702 0.650292 -0.747284
0.956772 0.129798 -0.26027
0.142634 -0.817656 -0.557758
0.497215 -0.461685 -0.734591
0.0225175 0.400806 -0.915886
-0.721653 -0.17123 -0.670744
-0.872023 -0.20444 -0.444726
0.299649 0.864702 -0.403115
0.806016 0.573146 0.147791
-0.67311 -0.738676 -0.0357765
0.183303 0.579183 0.794322
0.43114 -0.510123 0.74424
-0.603486 -0.122115 0.787967
0.884469 0.119682 -0.450988
0.648044 -0.711612 0.27138
0.099019 -0.19573 -0.975646
-0.370256 -0.0914543 0.924417
-0.484658 -0.874442 0.0214234
-0.244515 -0.782218 0.573016
0.376959 0.91612 -0.136476
0.714762 -0.55068 -0.431122
0.297484 0.247927 0.921974
0.689391 -0.468101 0.552831
-0.814535 0.579488 -0.026962
-0.264202 -0.553134 -0.790089
0.393371 -0.719309 -0.572585
-0.199759 0.929015 -0.311491
0.934072 0.139937 0.328524
-0.340794 0.0275833 -0.939733
-0.723906 0.630926 -0.279093
0.233431 0.397342 -0.887485
0.432787 0.39348 -0.811091
-0.261306 -0.0969443 -0.960375
-0.847941 -0.480571 -0.223713
-0.456062 -0.0122436 -0.889864
-0.329334 -0.583003 -0.742729
-0.896019 -0.101824 -0.432183
0.501498 0.729215 -0.465559
0.403206 -0.708144 -0.579618
-0.953389 0.100533 -0.284505
-0.942368 0.321928 -0.0911285
0.836894 -0.422557 -0.347929
0.230325 0.866466 0.442931
0.451771 -0.378887 0.80768
-0.646919 -0.761822 0.0335114
-0.187807 -0.745231 0.639812
0.443407 -0.367133 -0.817682
ITEM: TIMESTEP
1525
ITEM: NUMBER OF ATOMS
54
ITEM: BOX BOUNDS pp pp pp
0.0000000000000000e+00 8.6303750400000006e+00
0.0000000000000000e+00 8.6303750400000006e+00
0.0000000000000000e+00 8.6303750400000006e+00
ITEM: ATOMS c_outsp[1] c_outsp[2] c_outsp[3]
-0.160391 0.683835 0.711789
0.672464 -0.409149 0.616757
-0.421864 0.140526 -0.895702
-0.639396 -0.554521 0.532616
0.647313 -0.49511 -0.579528
0.630683 0.775948 -0.0120148
-0.275033 0.915824 -0.292615
-0.119205 0.688614 -0.715263
0.964971 0.10926 -0.238524
0.138121 -0.81203 -0.567037
0.483059 -0.464967 -0.74193
0.044543 0.421572 -0.9057
-0.718075 -0.170685 -0.674711
-0.871994 -0.185467 -0.453021
0.311391 0.850361 -0.424173
0.81357 0.555857 0.170667
-0.684 -0.725434 -0.0767476
0.195512 0.570725 0.797526
0.416213 -0.500548 0.759091
-0.58806 -0.0692923 0.805843
0.906159 0.0732767 -0.41654
0.651747 -0.718062 0.244158
0.142241 -0.178707 -0.973566
-0.406096 -0.0983863 0.908519
-0.448816 -0.893401 -0.0199702
-0.299871 -0.774103 0.557533
0.412721 0.904811 -0.104778
0.695632 -0.566222 -0.442141
0.31312 0.216067 0.924809
0.672843 -0.500085 0.545158
-0.797706 0.600863 -0.0512754
-0.326552 -0.53254 -0.780875
0.358344 -0.748075 -0.558546
-0.16173 0.935683 -0.313594
0.936926 0.0965653 0.335925
-0.336431 0.0491283 -0.940426
-0.693204 0.657974 -0.294173
0.220219 0.393248 -0.89267
0.448257 0.34147 -0.826113
-0.295385 -0.090775 -0.951056
-0.882607 -0.41791 -0.215305
-0.438333 0.0128891 -0.89872
-0.350484 -0.582832 -0.733122
-0.901284 -0.0868715 -0.424429
0.51805 0.701467 -0.489457
0.407346 -0.695901 -0.591431
-0.95396 0.109493 -0.279235
-0.930016 0.352136 -0.105213
0.839378 -0.452608 -0.300982
0.254381 0.858805 0.444685
0.433042 -0.383075 0.815922
-0.679006 -0.733045 0.0399599
-0.202414 -0.748976 0.630923
0.453668 -0.407681 -0.792453
ITEM: TIMESTEP
1530
ITEM: NUMBER OF ATOMS
54
ITEM: BOX BOUNDS pp pp pp
0.0000000000000000e+00 8.6303750400000006e+00
0.0000000000000000e+00 8.6303750400000006e+00
0.0000000000000000e+00 8.6303750400000006e+00
ITEM: ATOMS c_outsp[1] c_outsp[2] c_outsp[3]
-0.157443 0.687699 0.708719
0.656711 -0.41811 0.627626
-0.440258 0.138035 -0.887197
-0.656894 -0.558781 0.506215
0.619125 -0.484883 -0.617715
0.643494 0.765369 0.011221
-0.216759 0.934473 -0.282447
-0.0990721 0.72418 -0.682458
0.972366 0.0877064 -0.216361
0.133956 -0.80568 -0.577005
0.469765 -0.46768 -0.74873
0.0684431 0.441031 -0.894878
-0.71483 -0.171008 -0.678067
-0.871226 -0.166996 -0.461603
0.32329 0.835152 -0.444978
0.820838 0.537148 0.194157
-0.694068 -0.709984 -0.119137
0.207718 0.561923 0.800684
0.400878 -0.492083 0.772756
-0.56904 -0.0169902 0.822135
0.923476 0.0261554 -0.382764
0.654278 -0.724571 0.216602
0.185907 -0.161888 -0.969139
-0.441607 -0.103861 0.891177
-0.410191 -0.910164 -0.0578358
-0.355409 -0.764039 0.538451
0.447686 0.891079 -0.0745336
0.675676 -0.580679 -0.454173
0.326846 0.18411 0.926971
0.654233 -0.53166 0.537883
-0.780544 0.62051 -0.0756224
-0.387144 -0.508492 -0.769127
0.322909 -0.774824 -0.543486
-0.124326 0.940419 -0.316474
0.937919 0.0534484 0.34271
-0.330729 0.0696795 -0.94115
-0.661957 0.682967 -0.30882
0.206536 0.390267 -0.897237
0.45833 0.288572 -0.84063
-0.329625 -0.082266 -0.940521
-0.912121 -0.353302 -0.207875
-0.419415 0.035895 -0.907085
-0.371491 -0.581293 -0.723942
-0.906242 -0.07042 -0.416854
0.534092 0.672097 -0.512866
0.411005 -0.683388 -0.60337
-0.954636 0.117291 -0.273703
-0.916903 0.380785 -0.119547
0.838686 -0.482165 -0.253224
0.278092 0.850139 0.447133
0.414091 -0.387455 0.823655
-0.709215 -0.703517 0.0455864
-0.217671 -0.752746 0.621283
0.462467 -0.447257 -0.765562
ITEM: TIMESTEP
1535
ITEM: NUMBER OF ATOMS
54
ITEM: BOX BOUNDS pp pp pp
0.0000000000000000e+00 8.6303750400000006e+00
0.0000000000000000e+00 8.6303750400000006e+00
0.0000000000000000e+00 8.6303750400000006e+00
ITEM: ATOMS c_outsp[1] c_outsp[2] c_outsp[3]
-0.153681 0.692722 0.704641
0.641342 -0.42525 0.638625
-0.459359 0.135151 -0.877908
-0.674844 -0.561677 0.478649
0.590548 -0.471647 -0.65483
0.655891 0.754083 0.0341359
-0.156602 0.949265 -0.272712
-0.0764799 0.756851 -0.649097
0.978866 0.0650477 -0.193881
0.130166 -0.798613 -0.587601
0.457322 -0.469934 -0.754996
0.0941365 0.459038 -0.883415
-0.712001 -0.172093 -0.680763
-0.869743 -0.149028 -0.470466
0.335338 0.819063 -0.465493
0.827737 0.516966 0.218167
-0.703092 -0.692231 -0.162719
0.21989 0.552709 0.803842
0.38516 -0.484762 0.785275
-0.546507 0.0345421 0.836742
0.936558 -0.0213336 -0.349862
0.655595 -0.73115 0.188716
0.229854 -0.14534 -0.962311
-0.476641 -0.107915 0.872449
-0.369213 -0.924794 -0.0918532
-0.410705 -0.751931 0.515675
0.481707 0.875133 -0.0458285
0.654966 -0.593921 -0.467201
0.338712 0.152203 0.928498
0.633539 -0.56267 0.531066
-0.763195 0.638401 -0.0998856
-0.445638 -0.481151 -0.754918
0.287242 -0.799554 -0.527451
-0.0876643 0.943302 -0.320151
0.937117 0.0106278 0.348854
-0.323734 0.0891412 -0.941939
-0.630307 0.705947 -0.323035
0.192482 0.38839 -0.901168
0.462988 0.23526 -0.854573
-0.363797 -0.0713721 -0.92874
-0.936435 -0.287239 -0.201455
-0.3995 0.0567477 -0.914975
-0.392269 -0.578442 -0.715213
-0.91078 -0.0525101 -0.40954
0.549522 0.641116 -0.53572
0.414242 -0.670665 -0.615314
-0.95542 0.123937 -0.26798
-0.903145 0.407879 -0.134033
0.834717 -0.511155 -0.204862
0.301426 0.840491 0.450241
0.39489 -0.392024 0.830891
-0.737578 -0.673378 0.050404
-0.233503 -0.756495 0.610894
0.469878 -0.485797 -0.737032
ITEM: TIMESTEP
1540
ITEM: NUMBER OF ATOMS
54
ITEM: BOX BOUNDS pp pp pp
0.0000000000000000e+00 8.6303750400000006e+00
0.0000000000000000e+00 8.6303750400000006e+00
0.0000000000000000e+00 8.6303750400000006e+00
ITEM: ATOMS c_outsp[1] c_outsp[2] c_outsp[3]
-0.148976 0.698924 0.699508
0.626422 -0.430646 0.649722
-0.479125 0.131918 -0.867777
-0.693193 -0.563073 0.449925
0.561722 -0.455382 -0.690721
0.667851 0.74213 0.0567218
-0.0948732 0.959984 -0.263496
-0.0516213 0.78652 -0.615403
0.984375 0.0412109 -0.171192
0.126772 -0.790833 -0.598759
0.445712 -0.47183 -0.760735
0.121527 0.475446 -0.87131
-0.709667 -0.173814 -0.68276
-0.867565 -0.131564 -0.479605
0.347523 0.802085 -0.485683
0.83418 0.495272 0.242588
-0.71086 -0.672108 -0.207243
0.231991 0.543022 0.807036
0.369073 -0.478607 0.796694
-0.520568 0.0850594 0.849573
0.94558 -0.0688726 -0.318018
0.655661 -0.737799 0.160503
0.273918 -0.129136 -0.953044
-0.511058 -0.110584 0.852403
-0.326335 -0.93738 -0.121759
-0.465309 -0.737707 0.489158
0.514655 0.857193 -0.0187287
0.633581 -0.605826 -0.481197
0.348776 0.120486 0.929429
0.610753 -0.592958 0.524769
-0.745804 0.654533 -0.123947
-0.501719 -0.450707 -0.738337
0.251513 -0.822275 -0.510495
-0.0518513 0.944414 -0.324645
0.934576 -0.0318636 0.354334
-0.315503 0.107418 -0.942825
-0.598385 0.726971 -0.336821
0.178157 0.387603 -0.904447
0.462257 0.182005 -0.867867
-0.397661 -0.058067 -0.915693
-0.955545 -0.220201 -0.196072
-0.378769 0.0754382 -0.922411
-0.412735 -0.574343 -0.706951
-0.914788 -0.0331955 -0.402568
0.564237 0.608543 -0.557953
0.417121 -0.657794 -0.62715
-0.95631 0.129444 -0.262135
-0.888854 0.433434 -0.148573
0.827389 -0.539496 -0.156112
0.32435 0.829882 0.453975
0.375412 -0.396771 0.837639
-0.764139 -0.642752 0.0544199
-0.249829 -0.760175 0.599767
0.47596 -0.523234 -0.706886
ITEM: TIMESTEP
1545
ITEM: NUMBER OF ATOMS
54
ITEM: BOX BOUNDS pp pp pp
0.0000000000000000e+00 8.6303750400000006e+00
0.0000000000000000e+00 8.6303750400000006e+00
0.0000000000000000e+00 8.6303750400000006e+00
ITEM: ATOMS c_outsp[1] c_outsp[2] c_outsp[3]
-0.143186 0.706301 0.693279
0.612006 -0.434378 0.660881
-0.499503 0.128374 -0.856748
-0.711877 -0.562834 0.420058
0.532795 -0.436085 -0.725231
0.679354 0.729549 0.0789735
-0.0319129 0.966444 -0.254889
-0.0247015 0.813105 -0.581592
0.988794 0.0161395 -0.14841
0.123797 -0.782347 -0.610415
0.434907 -0.473462 -0.765957
0.1505 0.490112 -0.858569
-0.7079 -0.176036 -0.684024
-0.864716 -0.114601 -0.489012
0.359824 0.784208 -0.505514
0.840079 0.472036 0.2673
-0.717166 -0.649573 -0.252441
0.243978 0.53281 0.810301
0.352618 -0.473625 0.807056
-0.491353 0.134322 0.860541
0.950741 -0.116176 -0.287395
0.654447 -0.744504 0.131963
0.317931 -0.113357 -0.941313
-0.544728 -0.111905 0.831113
-0.282026 -0.948024 -0.147348
-0.518753 -0.721322 0.4589
0.546417 0.837486 0.00671696
0.611604 -0.616278 -0.496127
0.357106 0.0890856 0.929806
0.585882 -0.62236 0.519048
-0.72851 0.668925 -0.147689
-0.5551 -0.417375 -0.719488
0.21588 -0.843007 -0.492681
-0.0169782 0.943839 -0.32997
0.930351 -0.0740003 0.359125
-0.306102 0.124417 -0.943834
-0.56631 0.7461 -0.350181
0.163667 0.387886 -0.90706
0.456201 0.129269 -0.880437
-0.430971 -0.0423446 -0.901372
-0.969497 -0.152662 -0.191752
-0.357398 0.0919733 -0.929413
-0.432812 -0.569066 -0.699169
-0.918158 -0.0125426 -0.396017
0.578135 0.574403 -0.5795
0.419711 -0.64484 -0.638768
-0.957304 0.133826 -0.256242
-0.874136 0.457485 -0.163076
0.816642 -0.567101 -0.107202
0.346837 0.818329 0.458304
0.355639 -0.401678 0.843905
-0.788948 -0.611751 0.0576355
-0.266562 -0.76374 0.587917
0.480763 -0.559508 -0.675143
ITEM: TIMESTEP
1550
ITEM: NUMBER OF ATOMS
54
ITEM: BOX BOUNDS pp pp pp
0.0000000000000000e+00 8.6303750400000006e+00
0.0000000000000000e+00 8.6303750400000006e+00
0.0000000000000000e+00 8.6303750400000006e+00
ITEM: ATOMS c_outsp[1] c_outsp[2] c_outsp[3]
-0.136154 0.714826 0.685919
0.598138 -0.436528 0.672068
-0.520433 0.12456 -0.844769
-0.730814 -0.560831 0.389076
0.503911 -0.413769 -0.758201
0.690382 0.716376 0.100887
0.0319136 0.968495 -0.246978
0.00406453 0.836554 -0.54787
0.99202 -0.0102047 -0.125663
0.121258 -0.773165 -0.622505
0.424871 -0.474911 -0.770678
0.180928 0.502893 -0.845201
-0.706761 -0.178606 -0.684536
-0.861214 -0.0981358 -0.498678
0.372217 0.765427 -0.524953
0.845346 0.447242 0.292172
-0.721824 -0.624619 -0.29803
0.255806 0.522032 0.813662
0.335788 -0.469813 0.816408
-0.459013 0.182099 0.869567
0.952262 -0.16299 -0.258131
0.651931 -0.751238 0.103091
0.361725 -0.09809 -0.92711
-0.577529 -0.111916 0.808662
-0.236764 -0.956848 -0.168481
-0.570559 -0.702765 0.424953
0.576905 0.816243 0.0304764
0.589129 -0.625169 -0.511947
0.363779 0.0581188 0.929671
0.558949 -0.650712 0.513955
-0.711447 0.681617 -0.170999
-0.605521 -0.381394 -0.698486
0.180495 -0.861785 -0.474076
0.0168779 0.941662 -0.336137
0.92449 -0.115762 0.363205
-0.295608 0.140047 -0.944988
-0.534189 0.763406 -0.363116
0.149118 0.389217 -0.908996
0.444927 0.0775007 -0.892207
-0.463475 -0.0242202 -0.885779
-0.978379 -0.0850766 -0.188514
-0.33555 0.106374 -0.935997
-0.452428 -0.562684 -0.691878
-0.920785 0.00936974 -0.389959
0.591114 0.538726 -0.600299
0.422085 -0.631871 -0.650064
-0.958394 0.1371 -0.250369
-0.85909 0.480078 -0.177452
0.802441 -0.593871 -0.0583651
0.368857 0.805849 0.463198
0.335553 -0.406726 0.849693
-0.812065 -0.58047 0.0600467
-0.283613 -0.767149 0.575366
0.484328 -0.594553 -0.64182
ITEM: TIMESTEP
1555
ITEM: NUMBER OF ATOMS
54
ITEM: BOX BOUNDS pp pp pp
0.0000000000000000e+00 8.6303750400000006e+00
0.0000000000000000e+00 8.6303750400000006e+00
0.0000000000000000e+00 8.6303750400000006e+00
ITEM: ATOMS c_outsp[1] c_outsp[2] c_outsp[3]
-0.127717 0.724442 0.677401
0.584851 -0.437178 0.683246
-0.541844 0.120511 -0.831794
-0.749904 -0.55694 0.357017
0.47522 -0.388463 -0.78947
0.700921 0.702648 0.12246
0.0962202 0.966029 -0.239852
0.0344548 0.85684 -0.51443
0.993953 -0.0378396 -0.103083
0.119174 -0.763295 -0.634963
0.415563 -0.47625 -0.774915
0.212663 0.513653 -0.831225
-0.706302 -0.181366 -0.684283
-0.857079 -0.0821627 -0.508591
0.384668 0.745739 -0.54397
0.849895 0.420892 0.317061
-0.724662 -0.597267 -0.343711
0.267424 0.510655 0.817139
0.318566 -0.467151 0.824795
-0.423721 0.228168 0.876584
0.950379 -0.209092 -0.230347
0.648101 -0.757962 0.0738833
0.405131 -0.0834278 -0.910444
-0.609353 -0.110653 0.78514
-0.191024 -0.963979 -0.185077
-0.620247 -0.682055 0.387421
0.606047 0.793692 0.0525329
0.566252 -0.632404 -0.528606
0.368874 0.0276923 0.929067
0.529992 -0.677847 0.509541
-0.694737 0.692673 -0.193764
-0.652756 -0.343022 -0.675459
0.145496 -0.87865 -0.454758
0.0496546 0.937966 -0.343153
0.917032 -0.157135 0.366552
-0.28411 0.15422 -0.946307
-0.502115 0.778964 -0.375627
0.134619 0.391565 -0.910249
0.428576 0.0271362 -0.903098
-0.494923 -0.00373101 -0.868929
-0.982317 -0.0178803 -0.186371
-0.313381 0.118674 -0.942183
-0.471515 -0.555278 -0.685084
-0.92257 0.0324497 -0.384464
0.603072 0.501549 -0.620284
0.424317 -0.618959 -0.660942
-0.95957 0.139288 -0.244589
-0.843806 0.501272 -0.191619
0.784776 -0.619702 -0.00983671
0.390381 0.792458 0.468629
0.315145 -0.411889 0.855004
-0.833551 -0.548992 0.0616434
-0.300894 -0.770361 0.562145
0.486682 -0.628305 -0.606938
ITEM: TIMESTEP
1560
ITEM: NUMBER OF ATOMS
54
ITEM: BOX BOUNDS pp pp pp
0.0000000000000000e+00 8.6303750400000006e+00
0.0000000000000000e+00 8.6303750400000006e+00
0.0000000000000000e+00 8.6303750400000006e+00
ITEM: ATOMS c_outsp[1] c_outsp[2] c_outsp[3]
-0.117701 0.735061 0.667706
0.572171 -0.43641 0.694382
-0.563659 0.116265 -0.817784
-0.769035 -0.55105 0.323929
0.446868 -0.360212 -0.818875
0.710959 0.688397 0.143691
0.160605 0.958978 -0.233596
0.0662432 0.873964 -0.481455
0.994491 -0.0667619 -0.0808072
0.117561 -0.752751 -0.647723
0.406938 -0.477543 -0.778687
0.245543 0.522265 -0.816669
-0.706567 -0.184145 -0.683267
-0.852329 -0.0666761 -0.518738
0.397138 0.725146 -0.562534
0.853646 0.393 0.341817
-0.725535 -0.567572 -0.389181
0.27878 0.498656 0.820746
0.300926 -0.465609 0.832257
-0.385669 0.272319 0.881534
0.945337 -0.254293 -0.204139
0.642953 -0.764621 0.0443343
0.447985 -0.0694668 -0.891338
-0.6401 -0.10815 0.760642
-0.145275 -0.969556 -0.19712
-0.667351 -0.659247 0.346462
0.633791 0.770063 0.0728841
0.543072 -0.637896 -0.546041
0.372479 -0.00209852 0.928038
0.499066 -0.703598 0.505848
-0.678491 0.702171 -0.215882
-0.696614 -0.30253 -0.650542
0.111011 -0.893656 -0.434805
0.0813034 0.932831 -0.351021
0.908013 -0.198106 0.369143
-0.271708 0.166855 -0.947805
-0.47017 0.792853 -0.387717
0.120281 0.394898 -0.910817
0.407325 -0.021406 -0.913032
-0.525062 0.0190634 -0.85085
-0.981477 0.0485136 -0.185333
-0.291034 0.128919 -0.947987
-0.490014 -0.54693 -0.678788
-0.923419 0.0565933 -0.379597
0.61391 0.462916 -0.639392
0.426483 -0.606178 -0.671312
-0.960821 0.140414 -0.238971
-0.828363 0.521137 -0.2055
0.763667 -0.644483 0.0381461
0.411381 0.778169 0.474573
0.294408 -0.41714 0.859836
-0.853474 -0.517385 0.0624101
-0.318313 -0.773341 0.548288
0.487846 -0.660693 -0.570518
ITEM: TIMESTEP
1565
ITEM: NUMBER OF ATOMS
54
ITEM: BOX BOUNDS pp pp pp
0.0000000000000000e+00 8.6303750400000006e+00
0.0000000000000000e+00 8.6303750400000006e+00
0.0000000000000000e+00 8.6303750400000006e+00
ITEM: ATOMS c_outsp[1] c_outsp[2] c_outsp[3]
-0.105933 0.746563 0.656827
0.560116 -0.434305 0.705443
-0.585791 0.111854 -0.802706
-0.788074 -0.543059 0.289871
0.419 -0.329085 -0.846252
0.720487 0.673655 0.16458
0.224653 0.947318 -0.228295
0.0992023 0.887951 -0.449112
0.993541 -0.0969462 -0.0589747
0.116439 -0.741547 -0.660719
0.398947 -0.478843 -0.782017
0.27939 0.528611 -0.801568
-0.707584 -0.186769 -0.681499
-0.846983 -0.0516702 -0.529103
0.409577 0.703655 -0.580617
0.856523 0.3636 0.366283
-0.724321 -0.535621 -0.434129
0.289824 0.486025 0.824488
0.282837 -0.465146 0.838834
-0.345063 0.314354 0.884372
0.937384 -0.29843 -0.179584
0.636492 -0.771148 0.0144375
0.490126 -0.0563065 -0.869831
-0.669681 -0.104443 0.735268
-0.0999663 -0.973717 -0.20465
-0.711421 -0.634432 0.302286
0.660104 0.745575 0.0915403
0.519695 -0.641571 -0.564184
0.374683 -0.0311689 0.926629
0.466244 -0.727801 0.502914
-0.662807 0.71021 -0.237253
-0.736936 -0.260199 -0.623877
0.077153 -0.906862 -0.414304
0.11179 0.926333 -0.359737
0.897457 -0.238663 0.37096
-0.258512 0.177874 -0.949491
-0.438422 0.805157 -0.399386
0.106216 0.399177 -0.910701
0.381386 -0.0677261 -0.921932
-0.553649 0.044081 -0.831582
-0.976061 0.113718 -0.185401
-0.268643 0.137162 -0.953424
-0.50787 -0.537725 -0.672993
-0.92325 0.081685 -0.375416
0.623528 0.422877 -0.657562
0.428657 -0.593602 -0.681094
-0.962132 0.140506 -0.233581
-0.812833 0.539751 -0.219025
0.739163 -0.668097 0.0853501
0.431824 0.762995 0.481006
0.273344 -0.422449 0.864188
-0.871897 -0.485707 0.0623263
-0.335784 -0.776061 0.533834
0.48783 -0.691644 -0.532588
ITEM: TIMESTEP
1570
ITEM: NUMBER OF ATOMS
54
ITEM: BOX BOUNDS pp pp pp
0.0000000000000000e+00 8.6303750400000006e+00
0.0000000000000000e+00 8.6303750400000006e+00
0.0000000000000000e+00 8.6303750400000006e+00
ITEM: ATOMS c_outsp[1] c_outsp[2] c_outsp[3]
-0.0922387 0.758795 0.644765
0.548696 -0.430942 0.716395
-0.60815 0.107311 -0.786536
-0.806879 -0.532884 0.254913
0.391758 -0.295166 -0.871437
0.729498 0.658454 0.185126
0.287948 0.931073 -0.224029
0.133105 0.898849 -0.417556
0.991012 -0.128345 -0.0377259
0.115827 -0.7297 -0.673886
0.39154 -0.480193 -0.784927
0.314013 0.532586 -0.785969
-0.709372 -0.189061 -0.679004
-0.841059 -0.0371394 -0.539668
0.421932 0.681276 -0.598195
0.858459 0.332741 0.390296
-0.72093 -0.501533 -0.478252
0.300505 0.472761 0.828368
0.264262 -0.46571 0.844559
-0.302127 0.354089 0.885065
0.926768 -0.341371 -0.15674
0.628732 -0.777461 -0.0158124
0.531396 -0.0440485 -0.845977
-0.698018 -0.0995635 0.709124
-0.0555242 -0.976602 -0.207765
-0.752038 -0.607732 0.255147
0.68497 0.720443 0.108523
0.496225 -0.643366 -0.582959
0.375579 -0.059445 0.924882
0.431613 -0.750291 0.500773
-0.647765 0.7169 -0.257789
-0.773599 -0.216318 -0.595611
0.0440259 -0.918337 -0.393344
0.141094 0.91854 -0.369291
0.885383 -0.278797 0.37198
-0.244645 0.187209 -0.951368
-0.406928 0.815958 -0.410636
0.0925367 0.404359 -0.909907
0.350998 -0.111445 -0.92972
-0.580446 0.0712181 -0.811179
-0.966296 0.177376 -0.186572
-0.246331 0.143467 -0.958508
-0.525035 -0.527751 -0.667695
-0.921985 0.107598 -0.371976
0.631825 0.38149 -0.674732
0.430911 -0.581309 -0.690214
-0.963487 0.139595 -0.228487
-0.797274 0.557199 -0.232129
0.711345 -0.690423 0.131549
0.45168 0.746949 0.487906
0.25196 -0.427785 0.868053
-0.888886 -0.454001 0.0613665
-0.353222 -0.778493 0.518829
0.486638 -0.72108 -0.493181
ITEM: TIMESTEP
1575
ITEM: NUMBER OF ATOMS
54
ITEM: BOX BOUNDS pp pp pp
0.0000000000000000e+00 8.6303750400000006e+00
0.0000000000000000e+00 8.6303750400000006e+00
0.0000000000000000e+00 8.6303750400000006e+00
ITEM: ATOMS c_outsp[1] c_outsp[2] c_outsp[3]
-0.0764529 0.771567 0.631537
0.537915 -0.426397 0.727209
-0.630639 0.102666 -0.769256
-0.825291 -0.520457 0.219134
0.365279 -0.258563 -0.894269
0.737985 0.642821 0.205328
0.350071 0.91031 -0.220875
0.167729 0.906729 -0.386924
0.986823 -0.160888 -0.0171987
0.115744 -0.717229 -0.687158
0.384665 -0.481631 -0.787442
0.349206 0.534103 -0.769928
-0.711934 -0.190842 -0.675817
-0.834576 -0.0230789 -0.55041
0.434139 0.658027 -0.615243
0.859398 0.300489 0.413693
-0.715297 -0.465456 -0.521249
0.310773 0.458871 0.83238
0.245157 -0.467238 0.849463
-0.257096 0.391356 0.883596
0.913732 -0.383007 -0.135645
0.619698 -0.783466 -0.0464189
0.571646 -0.032795 -0.819844
-0.725046 -0.0935431 0.682318
-0.0123457 -0.978345 -0.206611
-0.788822 -0.579304 0.205345
0.708388 0.69487 0.123863
0.472771 -0.643232 -0.602279
0.375262 -0.0868634 0.92284
0.395282 -0.77091 0.49945
-0.633431 0.722364 -0.277407
-0.806513 -0.171174 -0.565894
0.0117187 -0.928153 -0.372015
0.169208 0.909516 -0.379669
0.871803 -0.318493 0.372186
-0.230237 0.194798 -0.953438
-0.375734 0.825341 -0.421469
0.0793551 0.410394 -0.908449
0.316435 -0.152207 -0.936324
-0.605226 0.10035 -0.789704
-0.952441 0.23916 -0.188834
-0.224208 0.147902 -0.963253
-0.541468 -0.517097 -0.66289
-0.919561 0.134195 -0.369323
0.638704 0.338818 -0.69084
0.433315 -0.569376 -0.698605
-0.964868 0.137718 -0.223751
-0.781735 0.573572 -0.244757
0.680322 -0.711337 0.176526
0.470914 0.730044 0.495254
0.230267 -0.433119 0.871427
-0.904501 -0.422301 0.059501
-0.370548 -0.780618 0.503318
0.484268 -0.748917 -0.452337
ITEM: TIMESTEP
1580
ITEM: NUMBER OF ATOMS
54
ITEM: BOX BOUNDS pp pp pp
0.0000000000000000e+00 8.6303750400000006e+00
0.0000000000000000e+00 8.6303750400000006e+00
0.0000000000000000e+00 8.6303750400000006e+00
ITEM: ATOMS c_outsp[1] c_outsp[2] c_outsp[3]
-0.0584217 0.784657 0.617171
0.527774 -0.420744 0.737854
-0.653157 0.0979486 -0.750861
-0.843143 -0.505728 0.18262
0.339692 -0.219407 -0.914587
0.745945 0.626784 0.225185
0.41061 0.885144 -0.218904
0.202856 0.911678 -0.35734
0.980903 -0.194484 0.0024731
0.116214 -0.704159 -0.700468
0.378272 -0.483182 -0.789585
0.384755 0.53309 -0.753511
-0.715261 -0.191938 -0.671984
-0.827555 -0.00948488 -0.561305
0.446129 0.633934 -0.631741
0.859293 0.266926 0.436309
-0.707393 -0.427564 -0.562836
0.320585 0.444374 0.836515
0.225478 -0.469662 0.853567
-0.210215 0.426004 0.879961
0.898514 -0.423253 -0.116321
0.609427 -0.789057 -0.0773828
0.610733 -0.0226478 -0.791513
-0.750709 -0.0864112 0.654958
0.0292066 -0.979078 -0.201379
-0.821436 -0.549333 0.153215
0.73037 0.669049 0.137598
0.449438 -0.641134 -0.622056
0.373825 -0.113371 0.920544
0.357373 -0.789506 0.498964
-0.619855 0.726734 -0.296037
-0.835624 -0.125056 -0.534877
-0.0196918 -0.936389 -0.350411