ITEM: TIMESTEP
0
ITEM: NUMBER OF ATOMS
54
ITEM: BOX BOUNDS pp pp pp
0.0000000000000000e+00 8.6303750400000006e+00
0.0000000000000000e+00 8.6303750400000006e+00
0.0000000000000000e+00 8.6303750400000006e+00
ITEM: ATOMS c_outsp[1] c_outsp[2] c_outsp[3]
0.601604 0.795089 -0.0768528
0.632622 -0.48477 -0.603976
0.80507 0.193026 -0.560896
-0.50291 -0.616191 -0.606127
-0.180365 -0.30508 -0.935091
0.388238 -0.921297 0.0219835
-0.841505 0.189122 -0.506065
0.608884 -0.756096 -0.239956
0.90069 0.00408149 0.434443
0.307666 0.770317 -0.558528
-0.531281 -0.306764 -0.789707
0.418236 -0.773787 0.475744
0.595244 -0.771511 -0.224622
0.329698 0.713747 0.617952
-0.259981 0.689588 -0.675928
-0.815582 0.54267 -0.200839
-0.762805 -0.63421 -0.126124
0.615155 0.268092 0.741425
0.281024 0.959656 0.00927919
0.691019 0.259459 -0.674666
-0.588104 -0.564173 -0.579519
-0.706982 -0.522268 -0.476878
0.475318 0.659128 -0.582771
-0.487167 0.856029 0.172866
0.188374 -0.691922 -0.696964
0.839941 0.132058 -0.526364
0.154905 -0.116711 -0.981011
0.0798551 0.864964 -0.495439
-0.798488 0.475379 0.369366
-0.906197 -0.419582 0.0525136
0.629887 0.647594 0.428793
0.613823 -0.750026 0.246339
0.561539 0.523047 0.641167
0.470989 -0.444044 0.76223
-0.691002 -0.716201 -0.0978384
-0.231951 -0.412474 -0.880945
-0.595287 0.448768 0.666514
-0.192917 -0.443042 0.875498
0.00337377 -0.196119 -0.980574
-0.725791 -0.643469 -0.243259
0.931673 0.360916 0.0415217
0.385046 -0.670099 -0.634592
0.299445 0.520753 0.799468
-0.0250968 0.962692 0.269435
0.591458 0.763488 -0.25935
-0.383006 0.155826 -0.910508
-0.565662 -0.660448 -0.493797
-0.723772 -0.685618 -0.0779868
-0.67723 -0.732277 -0.0716179
-0.613215 -0.773083 0.162203
0.219894 0.929128 -0.297267
-0.756226 0.619678 -0.21005
0.741396 -0.669481 0.0461265
-0.399573 -0.603626 -0.689911
ITEM: TIMESTEP
5
ITEM: NUMBER OF ATOMS
54
ITEM: BOX BOUNDS pp pp pp
0.0000000000000000e+00 8.6303750400000006e+00
0.0000000000000000e+00 8.6303750400000006e+00
0.0000000000000000e+00 8.6303750400000006e+00
ITEM: ATOMS c_outsp[1] c_outsp[2] c_outsp[3]
0.661772 0.747441 -0.0582195
0.618976 -0.472327 -0.627516
0.835216 0.156251 -0.527256
-0.559752 -0.570251 -0.601242
-0.165196 -0.267423 -0.949313
0.376857 -0.924393 0.0589595
-0.835205 0.19392 -0.514614
0.572918 -0.79512 -0.198871
0.882973 -0.0121979 0.469265
0.356437 0.745199 -0.563587
-0.52547 -0.280305 -0.803312
0.404906 -0.777205 0.481667
0.540678 -0.816294 -0.203299
0.36177 0.664405 0.653979
-0.227683 0.687813 -0.689256
-0.77937 0.601942 -0.173921
-0.780482 -0.60328 -0.164018
0.590447 0.233974 0.772418
0.335709 0.941927 -0.00852438
0.682605 0.225662 -0.695073
-0.605003 -0.567124 -0.558875
-0.732557 -0.470253 -0.492161
0.513366 0.60937 -0.604255
-0.425234 0.888002 0.17501
0.157832 -0.685143 -0.711104
0.864748 0.0771777 -0.49624
0.126894 -0.0666693 -0.989673
0.0790994 0.872815 -0.481599
-0.80472 0.459657 0.375688
-0.910578 -0.410953 0.0443255
0.634759 0.651502 0.415482
0.587145 -0.779596 0.217923
0.539286 0.523328 0.659771
0.474789 -0.424437 0.770992
-0.698809 -0.706754 -0.110291
-0.207583 -0.392845 -0.89587
-0.620662 0.453765 0.639434
-0.232666 -0.390986 0.890503
-0.0035906 -0.195805 -0.980636
-0.711841 -0.654883 -0.253792
0.936391 0.348487 0.0415824
0.364045 -0.667932 -0.649105
0.330867 0.500117 0.800256
0.000907811 0.96378 0.266696
0.589532 0.760643 -0.271798
-0.363189 0.139929 -0.921148
-0.578283 -0.64585 -0.498465
-0.723999 -0.685605 -0.0759666
-0.675883 -0.731964 -0.0860892
-0.646379 -0.743435 0.171754
0.243786 0.916368 -0.317549
-0.725048 0.644731 -0.242132
0.735296 -0.675512 0.0549892
-0.460855 -0.573739 -0.677079
ITEM: TIMESTEP
10
ITEM: NUMBER OF ATOMS
54
ITEM: BOX BOUNDS pp pp pp
0.0000000000000000e+00 8.6303750400000006e+00
0.0000000000000000e+00 8.6303750400000006e+00
0.0000000000000000e+00 8.6303750400000006e+00
ITEM: ATOMS c_outsp[1] c_outsp[2] c_outsp[3]
0.718101 0.694635 -0.042577
0.605783 -0.458988 -0.64989
0.862409 0.117557 -0.492373
-0.614094 -0.518726 -0.594821
-0.146404 -0.230935 -0.961891
0.364113 -0.926375 0.0961777
-0.82927 0.199083 -0.522185
0.530812 -0.832314 -0.159661
0.863942 -0.0261189 0.502913
0.403043 0.717249 -0.568428
-0.518042 -0.254918 -0.816486
0.391742 -0.781054 0.486305
0.482327 -0.856696 -0.182846
0.388923 0.611472 0.689087
-0.195189 0.684932 -0.701976
-0.738043 0.658763 -0.146028
-0.794622 -0.572535 -0.201938
0.563172 0.200651 0.801609
0.39025 0.920315 -0.0269353
0.671444 0.192987 -0.715485
-0.621884 -0.567821 -0.539296
-0.753367 -0.416858 -0.508594
0.546777 0.556419 -0.625646
-0.360923 0.915606 0.177202
0.129701 -0.676067 -0.725335
0.885145 0.0215715 -0.464816
0.102601 -0.013282 -0.994634
0.0794874 0.879837 -0.468582
-0.810758 0.443917 0.381587
-0.915087 -0.401644 0.036017
0.639873 0.654792 0.402256
0.559759 -0.80663 0.189785
0.516413 0.524222 0.677133
0.479034 -0.404154 0.779221
-0.706555 -0.697181 -0.121322
-0.18266 -0.375574 -0.908614
-0.64473 0.458639 0.611534
-0.270612 -0.336488 0.901967
-0.00929889 -0.195206 -0.980718
-0.696498 -0.66705 -0.264452
0.941069 0.335707 0.0411054
0.343157 -0.66458 -0.663759
0.361247 0.479188 0.799925
0.0275982 0.963985 0.26452
0.586899 0.758544 -0.283126
-0.343963 0.122724 -0.930929
-0.590517 -0.631309 -0.502731
-0.723973 -0.685764 -0.0747656
-0.673654 -0.732238 -0.10009
-0.678992 -0.711796 0.179769
0.267432 0.902633 -0.337243
-0.692474 0.667537 -0.273633
0.729252 -0.681173 0.0647689
-0.519925 -0.539559 -0.662234
ITEM: TIMESTEP
15
ITEM: NUMBER OF ATOMS
54
ITEM: BOX BOUNDS pp pp pp
0.0000000000000000e+00 8.6303750400000006e+00
0.0000000000000000e+00 8.6303750400000006e+00
0.0000000000000000e+00 8.6303750400000006e+00
ITEM: ATOMS c_outsp[1] c_outsp[2] c_outsp[3]
0.770095 0.637221 -0.0300387
0.593127 -0.444822 -0.671069
0.886473 0.0770777 -0.456317
-0.665257 -0.461758 -0.586696
-0.124226 -0.195951 -0.972713
0.349969 -0.927198 0.133516
-0.823714 0.204683 -0.528772
0.482892 -0.867055 -0.122603
0.843838 -0.0377461 0.535269
0.447267 0.686679 -0.573083
-0.509163 -0.230723 -0.829168
0.378747 -0.785335 0.489694
0.420524 -0.892459 -0.163329
0.410892 0.555362 0.723008
-0.162509 0.680965 -0.714057
-0.691665 0.712625 -0.117323
-0.805352 -0.542136 -0.239784
0.533481 0.168251 0.828908
0.444293 0.894702 -0.0459508
0.657571 0.161676 -0.73584
-0.638711 -0.566283 -0.520933
-0.769342 -0.362429 -0.526078
0.575135 0.500747 -0.646894
-0.294564 0.938619 0.179518
0.104149 -0.664943 -0.739597
0.90108 -0.0344343 -0.432283
0.0822873 0.0429051 -0.995685
0.080955 0.886081 -0.456407
-0.816557 0.428185 0.38716
-0.91971 -0.391631 0.0275385
0.645226 0.657485 0.389096
0.531835 -0.831194 0.162073
0.493017 0.525765 0.693185
0.483725 -0.383242 0.786852
-0.714298 -0.687475 -0.130981
-0.157486 -0.360811 -0.919246
-0.66748 0.463335 0.582916
-0.306432 -0.279752 0.909856
-0.0137094 -0.194497 -0.980807
-0.679772 -0.679879 -0.275092
0.945689 0.32259 0.0400983
0.322456 -0.660037 -0.678508
0.390588 0.458014 0.798539
0.0549758 0.963246 0.262937
0.583678 0.757205 -0.29319
-0.325396 0.104319 -0.939806
-0.602435 -0.616841 -0.506536
-0.723685 -0.686111 -0.0743691
-0.670606 -0.733074 -0.113535
-0.710859 -0.678238 0.186206
0.290721 0.887962 -0.356377
-0.658674 0.688048 -0.304531
0.723249 -0.686455 0.0754371
-0.576361 -0.501307 -0.645367
ITEM: TIMESTEP
20
ITEM: NUMBER OF ATOMS
54
ITEM: BOX BOUNDS pp pp pp
0.0000000000000000e+00 8.6303750400000006e+00
0.0000000000000000e+00 8.6303750400000006e+00
0.0000000000000000e+00 8.6303750400000006e+00
ITEM: ATOMS c_outsp[1] c_outsp[2] c_outsp[3]
0.817323 0.575808 -0.0206862
0.581088 -0.429905 -0.691027
0.907236 0.0349525 -0.419166
-0.71256 -0.399582 -0.576708
-0.0989302 -0.162782 -0.98169
0.334388 -0.92682 0.170848
-0.818546 0.210788 -0.53437
0.429552 -0.898751 -0.0879341
0.822896 -0.0471684 0.566231
0.48892 0.653725 -0.577581
-0.499011 -0.20782 -0.841308
0.36592 -0.79004 0.491873
0.355618 -0.923345 -0.144812
0.427455 0.496524 0.755477
-0.129657 0.675934 -0.725467
-0.640364 0.763016 -0.0879815
-0.812806 -0.512214 -0.277459
0.501539 0.136884 0.854237
0.497458 0.865007 -0.0655679
0.641045 0.131971 -0.756072
-0.655444 -0.562537 -0.503929
-0.780429 -0.307314 -0.544508
0.598082 0.442884 -0.667946
-0.226512 0.956849 0.182024
0.0813172 -0.652028 -0.753821
0.912542 -0.0905191 -0.39884
0.0661536 0.101305 -0.992654
0.0834353 0.891594 -0.445083
-0.82207 0.412486 0.392501
-0.924426 -0.380895 0.0188375
0.650808 0.659607 0.375989
0.50353 -0.853377 0.134925
0.469203 0.52799 0.707867
0.488864 -0.361755 0.793817
-0.72209 -0.677624 -0.139325
-0.132369 -0.348671 -0.927851
-0.688907 0.467803 0.553685
-0.339822 -0.221005 0.914154
-0.0167987 -0.193854 -0.980887
-0.661683 -0.693274 -0.285566
0.95023 0.309153 0.0385711
0.302018 -0.654299 -0.69331
0.418903 0.436634 0.79616
0.0830331 0.961495 0.261977
0.579996 0.756632 -0.301848
-0.307555 0.0848272 -0.947742
-0.614115 -0.60245 -0.50982
-0.723128 -0.686656 -0.0747582
-0.66681 -0.73444 -0.126342
-0.741789 -0.642849 0.191032
0.313547 0.872401 -0.374974
-0.623815 0.706228 -0.334807
0.717276 -0.691342 0.0869592
-0.629769 -0.45925 -0.626483
ITEM: TIMESTEP
25
ITEM: NUMBER OF ATOMS
54
ITEM: BOX BOUNDS pp pp pp
0.0000000000000000e+00 8.6303750400000006e+00
0.0000000000000000e+00 8.6303750400000006e+00
0.0000000000000000e+00 8.6303750400000006e+00
ITEM: ATOMS c_outsp[1] c_outsp[2] c_outsp[3]
0.859428 0.51105 -0.0145685
0.569741 -0.414316 -0.709745
0.924531 -0.00867146 -0.381008
-0.755331 -0.332533 -0.564709
-0.070817 -0.131709 -0.988756
0.317337 -0.925209 0.208049
-0.813764 0.217459 -0.53898
0.371251 -0.926851 -0.0558569
0.801346 -0.0544972 0.595714
0.527848 0.61864 -0.581946
-0.48777 -0.186291 -0.852863
0.353258 -0.795158 0.492881
0.287969 -0.949134 -0.127351
0.438438 0.43544 0.786234
-0.0966425 0.669856 -0.736175
-0.584332 0.809425 -0.0581902
-0.81712 -0.482876 -0.314874
0.46752 0.106638 0.877527
0.549339 0.831185 -0.0857824
0.621947 0.104113 -0.776107
-0.672037 -0.556612 -0.488415
-0.786598 -0.251857 -0.563766
0.615326 0.383409 -0.688746
-0.157142 0.970137 0.184773
0.0613193 -0.637586 -0.767935
0.919553 -0.146372 -0.364688
0.0543336 0.1613 -0.985409
0.0868593 0.896422 -0.434607
-0.827253 0.39684 0.397706
-0.929208 -0.369425 0.00985976
0.656601 0.661183 0.362923
0.474986 -0.873283 0.108465
0.445085 0.530924 0.721123
0.494451 -0.339756 0.800052
-0.729976 -0.667606 -0.146417
-0.107616 -0.339234 -0.934526
-0.709011 0.472002 0.523944
-0.370493 -0.160493 0.914864
-0.0185623 -0.193455 -0.980934
-0.642262 -0.70714 -0.295725
0.954668 0.295422 0.0365362
0.281917 -0.647369 -0.708121
0.446209 0.415085 0.792845
0.111752 0.958666 0.261671
0.575992 0.756819 -0.308962
-0.290505 0.0643694 -0.954706
-0.625636 -0.588134 -0.512521
-0.722299 -0.687403 -0.0759101
-0.662345 -0.736298 -0.138436
-0.7716 -0.605732 0.194222
0.335807 0.856001 -0.393059
-0.588062 0.722053 -0.364448
0.711322 -0.695817 0.0992959
-0.679784 -0.41369 -0.605603
ITEM: TIMESTEP
30
ITEM: NUMBER OF ATOMS
54
ITEM: BOX BOUNDS pp pp pp
0.0000000000000000e+00 8.6303750400000006e+00
0.0000000000000000e+00 8.6303750400000006e+00
0.0000000000000000e+00 8.6303750400000006e+00
ITEM: ATOMS c_outsp[1] c_outsp[2] c_outsp[3]
0.896131 0.443634 -0.0117004
0.559152 -0.398143 -0.727208
0.938191 -0.0536395 -0.341937
-0.792926 -0.261043 -0.550568
-0.0402108 -0.102979 -0.99387
0.298789 -0.922337 0.24499
-0.809362 0.224754 -0.542604
0.308504 -0.950853 -0.0265335
0.779407 -0.0598632 0.623651
0.563928 0.581687 -0.586196
-0.47563 -0.166197 -0.863803
0.340754 -0.800669 0.492763
0.217953 -0.969626 -0.111003
0.443716 0.37262 0.815028
-0.0634808 0.662746 -0.746148
-0.523832 0.851357 -0.0281447
-0.818435 -0.454204 -0.351943
0.431605 0.0775792 0.89872
0.599513 0.793236 -0.106589
0.600388 0.0783415 -0.795863
-0.688435 -0.548543 -0.474508
-0.787836 -0.196408 -0.583728
0.62665 0.322943 -0.709237
-0.086847 0.978358 0.187812
0.0442396 -0.621883 -0.78186
0.92217 -0.201695 -0.330033
0.0468921 0.222253 -0.973861
0.0911558 0.900609 -0.424964
-0.832064 0.381268 0.402871
-0.934023 -0.357214 0.000549715
0.662579 0.66224 0.349896
0.446331 -0.891029 0.0828014
0.420778 0.534589 0.732912
0.500489 -0.317314 0.805496
-0.737994 -0.657391 -0.152322
-0.0835323 -0.332544 -0.939381
-0.727794 0.475901 0.493795
-0.398182 -0.0984844 0.912004
-0.0190148 -0.193479 -0.98092
-0.621553 -0.721378 -0.305426
0.958981 0.281424 0.0340084
0.262234 -0.639255 -0.722901
0.472529 0.393394 0.788643
0.141103 0.954684 0.262046
0.571816 0.757746 -0.314401
-0.274311 0.0430721 -0.960676
-0.63708 -0.573879 -0.514579
-0.721195 -0.688349 -0.0777988
-0.657293 -0.738608 -0.149747
-0.800116 -0.567002 0.195763
0.357405 0.838823 -0.410654
-0.551571 0.735508 -0.393442
0.705381 -0.699859 0.112404
-0.726078 -0.364966 -0.582762
ITEM: TIMESTEP
35
ITEM: NUMBER OF ATOMS
54
ITEM: BOX BOUNDS pp pp pp
0.0000000000000000e+00 8.6303750400000006e+00
0.0000000000000000e+00 8.6303750400000006e+00
0.0000000000000000e+00 8.6303750400000006e+00
ITEM: ATOMS c_outsp[1] c_outsp[2] c_outsp[3]
0.927241 0.374272 -0.0120629
0.549381 -0.381478 -0.743408
0.948052 -0.0997873 -0.302058
-0.824742 -0.185637 -0.534171
-0.00745518 -0.0768073 -0.997018
0.278716 -0.918179 0.281541
-0.805323 0.23272 -0.545249
0.241875 -0.970307 -8.96684e-05
0.75729 -0.0634147 0.649992
0.597069 0.543139 -0.590346
-0.462781 -0.147579 -0.874102
0.328399 -0.806547 0.491564
0.145956 -0.98464 -0.0958204
0.443221 0.308596 0.841619
-0.0301871 0.654619 -0.755356
-0.45919 0.888336 0.00195161
-0.816886 -0.42626 -0.388587
0.393982 0.0497546 0.91777
0.647538 0.751209 -0.12798
0.576502 0.0548859 -0.81525
-0.704577 -0.538367 -0.462312
-0.784152 -0.141319 -0.604264
0.63192 0.262136 -0.729357
-0.0160365 0.981426 0.191171
0.0301351 -0.605187 -0.795513
0.920482 -0.256206 -0.295079
0.043824 0.283516 -0.957966
0.0962516 0.904196 -0.41613
-0.83646 0.365787 0.408085
-0.93883 -0.34426 -0.00914868
0.668711 0.662812 0.336907
0.417676 -0.906741 0.0580327
0.396402 0.538999 0.743199
0.506975 -0.294507 0.810087
-0.746173 -0.646948 -0.15711
-0.0604133 -0.328613 -0.94253
-0.745265 0.479475 0.46334
-0.422644 -0.0352603 0.905609
-0.0181902 -0.194099 -0.980813
-0.599609 -0.735893 -0.314532
0.963144 0.267194 0.0310053
0.243049 -0.629971 -0.737607
0.497889 0.371586 0.783601
0.171047 0.949476 0.263131
0.567623 0.759377 -0.318042
-0.259037 0.0210675 -0.965638
-0.648533 -0.55966 -0.515932
-0.719821 -0.689489 -0.0803948
-0.651743 -0.741324 -0.160216
-0.827171 -0.526792 0.195651
0.378249 0.820934 -0.427779
-0.514498 0.746587 -0.421782
0.699447 -0.703448 0.126235
-0.768361 -0.313445 -0.558009
ITEM: TIMESTEP
40
ITEM: NUMBER OF ATOMS
54
ITEM: BOX BOUNDS pp pp pp
0.0000000000000000e+00 8.6303750400000006e+00
0.0000000000000000e+00 8.6303750400000006e+00
0.0000000000000000e+00 8.6303750400000006e+00
ITEM: ATOMS c_outsp[1] c_outsp[2] c_outsp[3]
0.952646 0.303681 -0.0156032
0.540476 -0.364418 -0.758344
0.953957 -0.14694 -0.261486
-0.850232 -0.106933 -0.515433
0.0270934 -0.0533664 -0.998207
0.257099 -0.912715 0.31757
-0.801626 0.241399 -0.546921
0.171965 -0.984825 0.0233853
0.735191 -0.0653141 0.674706
0.627219 0.50327 -0.594403
-0.449414 -0.130456 -0.883747
0.316184 -0.812761 0.489333
0.0723809 -0.994012 -0.0818584
0.436942 0.243918 0.865786
0.0032204 0.645483 -0.763768
-0.390803 0.919922 0.0318898
-0.812608 -0.399089 -0.424731
0.354837 0.0231913 0.93464
0.692968 0.705204 -0.149946
0.550454 0.0339656 -0.834174
-0.720395 -0.52612 -0.451916
-0.775577 -0.0869465 -0.625237
0.631086 0.201654 -0.749044
0.0548717 0.979292 0.194875
0.0190357 -0.587766 -0.808807
0.914606 -0.309644 -0.26003
0.0450539 0.344448 -0.937724
0.102072 0.907225 -0.408073
-0.840404 0.350415 0.413438
-0.943584 -0.330571 -0.019291
0.67496 0.66293 0.323964
0.389116 -0.920552 0.0342409
0.372082 0.544162 0.751959
0.513912 -0.271418 0.813773
-0.754536 -0.636239 -0.160855
-0.0385443 -0.327417 -0.944093
-0.761433 0.482709 0.432681
-0.44366 0.0288813 0.89573
-0.0161422 -0.19549 -0.980573
-0.576498 -0.750585 -0.322912
0.967134 0.252772 0.0275471
0.224441 -0.619535 -0.752198
0.522319 0.349677 0.777759
0.201533 0.942967 0.264949
0.563577 0.761662 -0.31977
-0.244742 -0.00150769 -0.969587
-0.660077 -0.545442 -0.516518
-0.71818 -0.690809 -0.083666
-0.645791 -0.744396 -0.169789
-0.852611 -0.485242 0.193893
0.398256 0.802407 -0.444448
-0.47699 0.755292 -0.449461
0.693516 -0.70656 0.14074
-0.806386 -0.259519 -0.531405
ITEM: TIMESTEP
45
ITEM: NUMBER OF ATOMS
54
ITEM: BOX BOUNDS pp pp pp
0.0000000000000000e+00 8.6303750400000006e+00
0.0000000000000000e+00 8.6303750400000006e+00
0.0000000000000000e+00 8.6303750400000006e+00
ITEM: ATOMS c_outsp[1] c_outsp[2] c_outsp[3]
0.972323 0.232578 -0.0222359
0.532476 -0.347064 -0.772021
0.95575 -0.19491 -0.220345
-0.868918 -0.0256306 -0.494291
0.0630717 -0.0327919 -0.99747
0.233922 -0.905931 0.352945
-0.79824 0.250824 -0.547632
0.0994071 -0.994081 0.043836
0.713289 -0.065736 0.69778
0.654357 0.462354 -0.59837
-0.435716 -0.114828 -0.892729
0.304099 -0.819275 0.486121
-0.0023532 -0.997602 -0.069171
0.424926 0.179145 0.887325
0.0367201 0.635347 -0.771354
-0.319128 0.945717 0.0614579
-0.805728 -0.372723 -0.460305
0.314357 -0.0021013 0.949302
0.735348 0.655374 -0.172475
0.522435 0.015785 -0.852533
-0.73581 -0.511845 -0.443395
-0.762168 -0.0336498 -0.646505
0.624188 0.142167 -0.768231
0.125453 0.971949 0.198937
0.0109449 -0.56988 -0.821655
0.904688 -0.361768 -0.225085
0.0504385 0.404421 -0.913181
0.108539 0.909736 -0.40075
-0.843855 0.335167 0.419013
-0.948234 -0.316159 -0.0299318
0.681284 0.662631 0.311082
0.360733 -0.932598 0.0114949
0.347941 0.550078 0.759178
0.521297 -0.248136 0.816503
-0.763099 -0.625224 -0.163632
-0.0181963 -0.3289 -0.944189
-0.776314 0.485594 0.401915
-0.461033 0.0936295 0.88243
-0.0129439 -0.197815 -0.980154
-0.552299 -0.765358 -0.330444
0.970927 0.238202 0.0236571
0.206493 -0.607976 -0.766633
0.545849 0.327683 0.77115
0.232496 0.935082 0.267521
0.559845 0.76453 -0.31948
-0.231486 -0.0245131 -0.972529
-0.671798 -0.531175 -0.516276
-0.716281 -0.692295 -0.087577
-0.639535 -0.74777 -0.178425
-0.876296 -0.442506 0.190509
0.417351 0.783322 -0.460678
-0.439189 0.761632 -0.476476
0.687587 -0.709175 0.155867
-0.839949 -0.203599 -0.503024
ITEM: TIMESTEP
50
ITEM: NUMBER OF ATOMS
54
ITEM: BOX BOUNDS pp pp pp
0.0000000000000000e+00 8.6303750400000006e+00
0.0000000000000000e+00 8.6303750400000006e+00
0.0000000000000000e+00 8.6303750400000006e+00
ITEM: ATOMS c_outsp[1] c_outsp[2] c_outsp[3]
0.986332 0.161663 -0.0318451
0.525408 -0.329518 -0.784452
0.953284 -0.243497 -0.17877
-0.880409 0.0575009 -0.470716
0.100116 -0.0151786 -0.99486
0.209175 -0.897812 0.387531
-0.795129 0.261022 -0.547391
0.0248564 -0.997814 0.0612396
0.691751 -0.0648639 0.719217
0.678494 0.420657 -0.602241
-0.42187 -0.100673 -0.90105
0.292134 -0.826047 0.48198
-0.077811 -0.99529 -0.0578137
0.40728 0.11484 0.906055
0.0702869 0.624215 -0.778085
-0.244679 0.965377 0.0904437
-0.796367 -0.347181 -0.495242
0.272724 -0.0261302 0.961737
0.774232 0.601934 -0.195552
0.492661 0.000529917 -0.870221
-0.750733 -0.49558 -0.436807
-0.744008 0.0182073 -0.667923
0.611354 0.084338 -0.786851
0.195283 0.959431 0.203361
0.00584108 -0.551787 -0.833965
0.890894 -0.41236 -0.190438
0.0597704 0.462832 -0.884428
0.115577 0.911766 -0.394111
-0.846779 0.320058 0.424887
-0.952724 -0.301043 -0.0411231
0.687637 0.661955 0.29828
0.33259 -0.943017 -0.01015
0.324105 0.55674 0.764851
0.529131 -0.224758 0.818233
-0.771867 -0.613861 -0.165517
0.00037669 -0.332975 -0.942936
-0.789926 0.488132 0.371138
-0.474591 0.158662 0.865789
-0.00868857 -0.201234 -0.979505
-0.5271 -0.780118 -0.337018
0.974504 0.223534 0.0193614
0.189288 -0.595327 -0.780869
0.568511 0.305614 0.763803
0.263861 0.925749 0.270863
0.556598 0.767891 -0.317083
-0.219321 -0.0478059 -0.974481
-0.683777 -0.516796 -0.515142
-0.714133 -0.693926 -0.0920906
-0.633077 -0.751388 -0.18609
-0.898099 -0.398745 0.185526
0.435467 0.763766 -0.476477
-0.401232 0.765623 -0.502827
0.681659 -0.711271 0.171563
-0.86889 -0.146106 -0.472951
ITEM: TIMESTEP
55
ITEM: NUMBER OF ATOMS
54
ITEM: BOX BOUNDS pp pp pp
0.0000000000000000e+00 8.6303750400000006e+00
0.0000000000000000e+00 8.6303750400000006e+00
0.0000000000000000e+00 8.6303750400000006e+00
ITEM: ATOMS c_outsp[1] c_outsp[2] c_outsp[3]
0.99481 0.0916058 -0.0442861
0.519287 -0.311884 -0.795657
0.94642 -0.292481 -0.136909
-0.884406 0.141632 -0.444708
0.137868 -0.000581799 -0.99045
0.182856 -0.888347 0.421192
-0.792253 0.27201 -0.54621
-0.0510189 -0.995832 0.0756026
0.670724 -0.062888 0.739036
0.699674 0.378434 -0.606007
-0.408047 -0.087951 -0.908715
0.28028 -0.833033 0.476968
-0.153539 -0.986984 -0.047844
0.384172 0.0515579 0.921821
0.103892 0.61209 -0.783934
-0.168022 0.978618 0.118638
-0.784641 -0.32248 -0.529477
0.230113 -0.0489161 0.971934
0.809183 0.545154 -0.219157
0.461376 -0.0116363 -0.887128
-0.765065 -0.477369 -0.432198
-0.721211 0.0682586 -0.689344
0.592798 0.0288047 -0.804836
0.26394 0.941813 0.208146
0.00367859 -0.533735 -0.845644
0.873411 -0.461229 -0.156276
0.072783 0.519117 -0.851599
0.123106 0.913357 -0.388103
-0.849139 0.305104 0.431131
-0.956992 -0.285248 -0.0529145
0.693968 0.660944 0.285588
0.304742 -0.951942 -0.0306511
0.300695 0.564134 0.768983
0.537409 -0.201382 0.818924
-0.780841 -0.602109 -0.16659
0.0169393 -0.339527 -0.940444
-0.802292 0.490332 0.340444
-0.484188 0.223648 0.845898
-0.00348877 -0.205896 -0.978568
-0.501004 -0.794774 -0.342535
0.977843 0.208823 0.0146893
0.172907 -0.581632 -0.794863
0.590336 0.283478 0.755741
0.295542 0.914897 0.274988
0.554004 0.771636 -0.312503
-0.208296 -0.0712415 -0.975468
-0.696092 -0.502227 -0.513054
-0.711752 -0.695678 -0.097167
-0.626522 -0.75519 -0.192765
-0.917908 -0.35413 0.178985
0.452548 0.743827 -0.491855
-0.36325 0.767285 -0.528511
0.675734 -0.712828 0.187776
-0.893097 -0.0874732 -0.441277
ITEM: TIMESTEP
60
ITEM: NUMBER OF ATOMS
54
ITEM: BOX BOUNDS pp pp pp
0.0000000000000000e+00 8.6303750400000006e+00
0.0000000000000000e+00 8.6303750400000006e+00
0.0000000000000000e+00 8.6303750400000006e+00
ITEM: ATOMS c_outsp[1] c_outsp[2] c_outsp[3]
0.997969 0.0230409 -0.0593887
0.514116 -0.294265 -0.805663
0.935029 -0.34163 -0.0949197
-0.880719 0.225892 -0.416302
0.17598 0.0109814 -0.984332
0.154968 -0.87753 0.453791
-0.789566 0.283795 -0.544101
-0.127545 -0.988013 0.0869586
0.650336 -0.0600023 0.757273
0.717966 0.335928 -0.609654
-0.394411 -0.0766013 -0.915736
0.268533 -0.840187 0.471144
-0.229065 -0.972617 -0.0393209
0.355826 -0.0101554 0.934497
0.137501 0.598972 -0.788877
-0.0897622 0.985228 0.145835
-0.770655 -0.29863 -0.562948
0.186693 -0.0704909 0.979886
0.839786 0.485366 -0.243268
0.428846 -0.0205762 -0.903143
-0.778696 -0.457254 -0.429594
-0.693925 0.116137 -0.71062
0.568819 -0.0238283 -0.822118
0.33101 0.919208 0.213282
0.004389 -0.515965 -0.856599
0.852439 -0.508206 -0.122777
0.0891565 0.572753 -0.814865
0.131048 0.914547 -0.382662
-0.850903 0.290319 0.437812
-0.960974 -0.268807 -0.0653517
0.700227 0.659645 0.27304
0.277226 -0.959504 -0.0499779
0.277832 0.572239 0.771591
0.546131 -0.17811 0.818546
-0.790014 -0.589927 -0.166927
0.031277 -0.348414 -0.936819
-0.813436 0.49221 0.309921
-0.489704 0.288247 0.822863
0.00252334 -0.21194 -0.977279
-0.474119 -0.809236 -0.346912
0.980929 0.194126 0.00967357
0.15743 -0.566943 -0.808574
0.611355 0.261281 0.746979
0.327442 0.902462 0.2799
0.552228 0.775631 -0.305681
-0.198456 -0.094675 -0.975527
-0.708816 -0.487372 -0.50995
-0.709153 -0.697526 -0.102765
-0.619976 -0.759112 -0.198438
-0.935629 -0.308836 0.170937
0.468547 0.723602 -0.506817
-0.325371 0.766641 -0.55353
0.669812 -0.713829 0.204452
-0.912501 -0.028133 -0.408106
ITEM: TIMESTEP
65
ITEM: NUMBER OF ATOMS
54
ITEM: BOX BOUNDS pp pp pp
0.0000000000000000e+00 8.6303750400000006e+00
0.0000000000000000e+00 8.6303750400000006e+00
0.0000000000000000e+00 8.6303750400000006e+00
ITEM: ATOMS c_outsp[1] c_outsp[2] c_outsp[3]
0.996087 -0.0434465 -0.0769603
0.509885 -0.276763 -0.814506
0.918997 -0.390691 -0.0529714
-0.869265 0.309381 -0.385567
0.214121 0.01953 -0.976612
0.125528 -0.865352 0.485189
-0.787018 0.296379 -0.541075
-0.204053 -0.974304 0.0953657
0.630697 -0.0564025 0.773977
0.733465 0.293363 -0.613162
-0.381114 -0.0665472 -0.92213
0.256886 -0.847457 0.46457
-0.303899 -0.952156 -0.0323051
0.322522 -0.0697769 0.943987
0.171077 0.584858 -0.792889
-0.010538 0.985068 0.17184
-0.754511 -0.275644 -0.595595
0.142626 -0.0908956 0.985594
0.865655 0.422957 -0.267859
0.395357 -0.0261818 -0.918155
-0.791507 -0.43528 -0.429008
-0.66233 0.161478 -0.731604
0.539787 -0.0730029 -0.83863
0.396092 0.891772 0.218754
0.00788249 -0.498704 -0.866736
0.828194 -0.553151 -0.0901083
0.108526 0.623274 -0.774436
0.139322 0.915376 -0.377724
-0.852038 0.275716 0.444985
-0.964603 -0.251758 -0.0784759
0.706361 0.658104 0.260677
0.250074 -0.965828 -0.0681106
0.255631 0.581026 0.772698
0.555291 -0.155048 0.817075
-0.799371 -0.577276 -0.166609
0.0431971 -0.359471 -0.932156
-0.823388 0.493788 0.279655
-0.491046 0.352114 0.7968
0.00919668 -0.21949 -0.975571
-0.446566 -0.823422 -0.350078
0.983747 0.179506 0.00435031
0.142935 -0.551323 -0.821957
0.631597 0.239028 0.73753
0.359453 0.888384 0.285599
0.551426 0.779724 -0.296579
-0.189835 -0.117963 -0.974704
-0.722011 -0.472121 -0.505769
-0.706353 -0.699442 -0.108841
-0.613547 -0.76309 -0.203111
-0.951182 -0.26304 0.161442
0.483431 0.703188 -0.521364
-0.287715 0.763722 -0.577883
0.663894 -0.714258 0.221541
-0.927077 0.0314832 -0.373546
ITEM: TIMESTEP
70
ITEM: NUMBER OF ATOMS
54
ITEM: BOX BOUNDS pp pp pp
0.0000000000000000e+00 8.6303750400000006e+00
0.0000000000000000e+00 8.6303750400000006e+00
0.0000000000000000e+00 8.6303750400000006e+00
ITEM: ATOMS c_outsp[1] c_outsp[2] c_outsp[3]
0.989501 -0.107327 -0.0967893
0.506571 -0.259476 -0.822228
0.898226 -0.43939 -0.0112442
-0.850082 0.391193 -0.352602
0.251978 0.0251162 -0.967407
0.0945587 -0.85181 0.515246
-0.784557 0.309753 -0.537144
-0.279883 -0.954717 0.100903
0.611898 -0.0522837 0.789207
0.746288 0.250944 -0.616508
-0.368291 -0.0576956 -0.927919
0.245339 -0.854795 0.457312
-0.377533 -0.925607 -0.026858
0.284591 -0.126811 0.950225
0.204577 0.569746 -0.795951
0.0689919 0.97808 0.196468
-0.736305 -0.253536 -0.627356
0.0980624 -0.110177 0.989063
0.886443 0.358371 -0.292899
0.361213 -0.0283769 -0.932051
-0.803367 -0.411494 -0.430435
-0.626646 0.203923 -0.752151
0.506145 -0.118217 -0.854308
0.458805 0.859697 0.224544
0.0140493 -0.482172 -0.875964
0.800896 -0.595946 -0.0584292
0.130489 0.670271 -0.730554
0.14785 0.915887 -0.373217
-0.852512 0.261311 0.452702
-0.967808 -0.234146 -0.0923237
0.712317 0.656375 0.248551
0.223305 -0.971032 -0.0850391
0.234203 0.59046 0.772338
0.564884 -0.132302 0.814495
-0.808891 -0.564122 -0.165712
0.0525301 -0.372511 -0.92654
-0.832177 0.495096 0.249724
-0.488149 0.414896 0.767836
0.0163619 -0.228654 -0.97337
-0.418472 -0.837252 -0.351981
0.986288 0.165028 -0.00124053
0.129494 -0.534843 -0.834969
0.651092 0.216725 0.727399
0.391457 0.872613 0.292076
0.551746 0.78374 -0.285179
-0.182464 -0.140962 -0.973055
-0.735728 -0.456346 -0.500452
-0.703375 -0.701397 -0.115351
-0.60734 -0.767055 -0.206797
-0.964507 -0.216924 0.15057
0.497175 0.682685 -0.535499
-0.250403 0.758557 -0.601573
0.657982 -0.714103 0.238991
-0.936845 0.0909509 -0.337713
ITEM: TIMESTEP
75
ITEM: NUMBER OF ATOMS
54
ITEM: BOX BOUNDS pp pp pp
0.0000000000000000e+00 8.6303750400000006e+00
0.0000000000000000e+00 8.6303750400000006e+00
0.0000000000000000e+00 8.6303750400000006e+00
ITEM: ATOMS c_outsp[1] c_outsp[2] c_outsp[3]
0.978598 -0.168132 -0.118649
0.504141 -0.242496 -0.828877
0.87264 -0.487437 0.0300715
-0.823324 0.470431 -0.317542
0.289265 0.0278222 -0.956845
0.0620973 -0.836901 0.54382
-0.782129 0.323899 -0.532319
-0.354394 -0.929332 0.103669
0.594007 -0.0478379 0.803036
0.756568 0.208857 -0.619664
-0.356063 -0.0499392 -0.933127
0.233892 -0.862149 0.449437
-0.449441 -0.893013 -0.0230414
0.24241 -0.180799 0.953178
0.237954 0.55363 -0.798043
0.14816 0.964286 0.219549
-0.716126 -0.232327 -0.65817
0.0531455 -0.128385 0.990299
0.901846 0.292103 -0.318353
0.326732 -0.0271195 -0.944728
-0.814134 -0.385948 -0.433855
-0.587131 0.24312 -0.77212
0.468389 -0.159035 -0.869091
0.518785 0.823208 0.23063
0.022761 -0.466571 -0.884191
0.770774 -0.636498 -0.0278858
0.154613 0.713399 -0.683488
0.156555 0.916122 -0.369068
-0.852295 0.247116 0.461005
-0.970516 -0.21602 -0.106926
0.718042 0.654509 0.236715
0.196932 -0.975226 -0.100762
0.21365 0.6005 0.770554
0.574902 -0.109978 0.810797
-0.81855 -0.550434 -0.164314
0.0591301 -0.387327 -0.920044
-0.839837 0.496169 0.220204
-0.480974 0.476241 0.73611
0.0238323 -0.239525 -0.970598
-0.389967 -0.850654 -0.352582
0.988545 0.15076 -0.00705499
0.117177 -0.517587 -0.847569
0.669865 0.194376 0.716588
0.423331 0.855104 0.299313
0.553318 0.787485 -0.271488
-0.176365 -0.163534 -0.970645
-0.750006 -0.4399 -0.493942
-0.70024 -0.703362 -0.122251
-0.60146 -0.77094 -0.209517
-0.975561 -0.170668 0.138398
0.509769 0.66219 -0.549218
-0.213549 0.751182 -0.624598
0.652074 -0.713355 0.256756
-0.941864 0.149857 -0.300725
ITEM: TIMESTEP
80
ITEM: NUMBER OF ATOMS
54
ITEM: BOX BOUNDS pp pp pp
0.0000000000000000e+00 8.6303750400000006e+00
0.0000000000000000e+00 8.6303750400000006e+00
0.0000000000000000e+00 8.6303750400000006e+00
ITEM: ATOMS c_outsp[1] c_outsp[2] c_outsp[3]
0.963804 -0.22546 -0.142302
0.50255 -0.225911 -0.83451
0.842187 -0.534519 0.070776
-0.789258 0.546226 -0.280551
0.32572 0.0277555 -0.945059
0.0281922 -0.820624 0.570772
-0.779681 0.338791 -0.526611
-0.426969 -0.898292 0.103777
0.577075 -0.0432523 0.815545
0.764454 0.167265 -0.622601
-0.344534 -0.0431584 -0.937781
0.222548 -0.869469 0.441016
-0.519087 -0.854465 -0.020916
0.196395 -0.23132 0.952848
0.271158 0.536502 -0.799149
0.226301 0.943791 0.240928
-0.694063 -0.212045 -0.687978
0.00800894 -0.145571 0.989315
0.91162 0.224693 -0.344182
0.292242 -0.0224037 -0.956082
-0.823659 -0.358696 -0.439231
-0.544085 0.278736 -0.791377
0.427067 -0.195091 -0.882923
0.575697 0.782566 0.236988
0.0338724 -0.452095 -0.891326
0.738057 -0.674737 0.00138702
0.180448 0.75238 -0.633532
0.165359 0.916125 -0.365201
-0.851357 0.233147 0.469929
-0.972656 -0.197438 -0.122307
0.723486 0.652563 0.225232