ITEM: TIMESTEP
6000
ITEM: NUMBER OF ATOMS
54
ITEM: BOX BOUNDS pp pp pp
0.0000000000000000e+00 8.6303750400000006e+00
0.0000000000000000e+00 8.6303750400000006e+00
0.0000000000000000e+00 8.6303750400000006e+00
ITEM: ATOMS c_outsp[1] c_outsp[2] c_outsp[3]
0.82506 -0.498488 0.266056
0.468823 -0.550972 -0.690387
0.406419 0.287611 -0.867239
0.918811 -0.360731 -0.160189
0.558602 -0.478213 0.677699
-0.210576 0.640598 0.738439
0.240975 0.616337 -0.749706
0.273266 0.184088 -0.94416
0.5123 -0.189294 0.837685
-0.565566 -0.298184 0.768909
-0.554123 0.147488 -0.819265
0.591253 0.746249 -0.30583
0.912608 0.293119 -0.285006
0.0486978 -0.346221 0.936888
-0.660575 -0.0421729 -0.749574
0.473892 0.87671 0.0825013
-0.112254 0.733232 0.670649
0.360626 -0.298563 -0.883634
-0.958552 -0.257292 -0.122389
0.305488 0.684516 -0.661903
-0.390618 -0.802431 -0.451134
-0.786303 -0.317978 0.529733
0.363639 -0.469262 -0.804711
0.769834 -0.263828 -0.581163
-0.176163 0.487279 -0.855293
-0.81924 0.262515 -0.509835
0.217271 -0.808241 -0.547302
-0.36274 -0.590718 -0.720744
0.0268028 -0.843518 -0.536432
-0.520806 -0.830327 -0.198289
0.701857 -0.703815 -0.10973
0.191801 0.574972 -0.795374
0.191804 -0.955433 0.224407
-0.433639 -0.435614 -0.788795
0.832814 0.36326 0.417687
-0.939739 0.336621 0.059804
0.00776987 -0.585222 0.810836
0.835368 -0.511804 0.200542
0.630256 0.711689 0.310284
-0.170234 -0.958427 0.228994
-0.634483 0.570913 0.521047
-0.723867 0.615237 -0.312252
-0.77195 0.631602 0.0719213
-0.584643 -0.811076 0.0186538
0.50138 -0.680733 0.534061
-0.719716 0.558716 -0.412123
0.820835 -0.493761 0.287106
0.264052 0.0553225 -0.962921
-0.845966 0.0603479 0.529811
-0.144841 -0.212845 -0.966291
0.468197 0.849899 -0.24179
-0.384213 0.489097 -0.783048
-0.934682 0.140519 -0.326534
0.0850221 0.697171 -0.711845
ITEM: TIMESTEP
6005
ITEM: NUMBER OF ATOMS
54
ITEM: BOX BOUNDS pp pp pp
0.0000000000000000e+00 8.6303750400000006e+00
0.0000000000000000e+00 8.6303750400000006e+00
0.0000000000000000e+00 8.6303750400000006e+00
ITEM: ATOMS c_outsp[1] c_outsp[2] c_outsp[3]
0.813452 -0.521262 0.258034
0.453326 -0.546349 -0.704271
0.426295 0.294193 -0.855408
0.90299 -0.402774 -0.149606
0.520473 -0.479648 0.706431
-0.23906 0.616774 0.74996
0.276331 0.616148 -0.737565
0.284254 0.145411 -0.947658
0.517427 -0.231591 0.823793
-0.561986 -0.332105 0.757547
-0.550121 0.197036 -0.811507
0.605183 0.732683 -0.311335
0.930766 0.243086 -0.273099
0.0466553 -0.356001 0.93332
-0.638498 -0.0378273 -0.768694
0.480391 0.867703 0.127733
-0.0783036 0.741425 0.666452
0.356179 -0.282232 -0.890776
-0.967802 -0.211976 -0.13574
0.329545 0.675933 -0.659177
-0.451751 -0.76283 -0.462613
-0.790825 -0.284738 0.541774
0.346874 -0.522627 -0.778806
0.785829 -0.276153 -0.553365
-0.16684 0.506758 -0.84579
-0.798758 0.293726 -0.525082
0.20254 -0.805658 -0.556681
-0.388871 -0.599144 -0.699861
0.0313455 -0.810739 -0.584568
-0.54147 -0.814968 -0.20649
0.685749 -0.716353 -0.128792
0.235428 0.581427 -0.778792
0.169249 -0.964212 0.204083
-0.430014 -0.441669 -0.787412
0.834324 0.367298 0.41109
-0.932969 0.352746 0.0716836
0.0198359 -0.535462 0.844326
0.829855 -0.522517 0.195747
0.664963 0.691643 0.281877
-0.210928 -0.947698 0.239538
-0.644598 0.555283 0.525504
-0.731972 0.60579 -0.311827
-0.746282 0.663015 0.0589447
-0.607106 -0.794481 0.0148991
0.460372 -0.712699 0.529262
-0.706465 0.563508 -0.428213
0.801219 -0.512047 0.309607
0.262565 0.0677444 -0.962533
-0.821489 0.120239 0.557404
-0.173995 -0.211002 -0.961875
0.51356 0.812207 -0.276723
-0.388967 0.470471 -0.792062
-0.922169 0.179083 -0.342832
0.104298 0.695378 -0.711035
ITEM: TIMESTEP
6010
ITEM: NUMBER OF ATOMS
54
ITEM: BOX BOUNDS pp pp pp
0.0000000000000000e+00 8.6303750400000006e+00
0.0000000000000000e+00 8.6303750400000006e+00
0.0000000000000000e+00 8.6303750400000006e+00
ITEM: ATOMS c_outsp[1] c_outsp[2] c_outsp[3]
0.800782 -0.544437 0.249673
0.440173 -0.540203 -0.717237
0.445499 0.300641 -0.843294
0.884585 -0.445107 -0.139245
0.480659 -0.479491 0.734204
-0.268919 0.593405 0.758652
0.311091 0.614217 -0.725231
0.294001 0.107779 -0.949709
0.521239 -0.27594 0.807568
-0.561464 -0.364913 0.742695
-0.541265 0.247407 -0.80363
0.618458 0.719206 -0.316627
0.946118 0.191755 -0.260943
0.0437915 -0.367071 0.929162
-0.615043 -0.0317202 -0.787855
0.485858 0.8568 0.172731
-0.0440767 0.746782 0.663607
0.35346 -0.265352 -0.897025
-0.97459 -0.166409 -0.149943
0.352397 0.666526 -0.656933
-0.507652 -0.719758 -0.473537
-0.794452 -0.251537 0.552788
0.328144 -0.573191 -0.750849
0.799672 -0.291383 -0.524996
-0.157384 0.525865 -0.835881
-0.777092 0.324292 -0.539409
0.188762 -0.802591 -0.565877
-0.416181 -0.605543 -0.678315
0.0385799 -0.775543 -0.630114
-0.561206 -0.799428 -0.21439
0.670071 -0.72777 -0.146135
0.276514 0.58624 -0.761487
0.146672 -0.972039 0.183377
-0.428288 -0.446978 -0.785354
0.835417 0.37105 0.405463
-0.925844 0.368432 0.0840838
0.0328189 -0.485709 0.873504
0.824572 -0.532228 0.191871
0.698339 0.669505 0.253152
-0.25126 -0.935753 0.247456
-0.652976 0.540284 0.530768
-0.740667 0.596436 -0.309315
-0.719177 0.693253 0.0467384
-0.62922 -0.77714 0.0116498
0.417755 -0.742558 0.523534
-0.692871 0.567519 -0.444804
0.780217 -0.531515 0.329778
0.261132 0.0776107 -0.962178
-0.792505 0.178312 0.583216
-0.203177 -0.207545 -0.956893
0.557385 0.769255 -0.312361
-0.39717 0.454097 -0.797528
-0.906735 0.217659 -0.361187
0.125091 0.694469 -0.708566
ITEM: TIMESTEP
6015
ITEM: NUMBER OF ATOMS
54
ITEM: BOX BOUNDS pp pp pp
0.0000000000000000e+00 8.6303750400000006e+00
0.0000000000000000e+00 8.6303750400000006e+00
0.0000000000000000e+00 8.6303750400000006e+00
ITEM: ATOMS c_outsp[1] c_outsp[2] c_outsp[3]
0.787773 -0.567006 0.24066
0.428311 -0.532546 -0.730031
0.464071 0.306958 -0.830912
0.863493 -0.48753 -0.129207
0.439198 -0.477676 0.760875
-0.300049 0.570695 0.764381
0.345172 0.61059 -0.712766
0.302355 0.0699047 -0.950628
0.52369 -0.320867 0.789172
-0.562676 -0.396452 0.725411
-0.528337 0.297299 -0.795282
0.631137 0.7058 -0.321733
0.9585 0.139354 -0.248714
0.0414204 -0.378717 0.924585
-0.590511 -0.025722 -0.806619
0.490202 0.844059 0.217407
-0.00980298 0.749336 0.662117
0.352534 -0.24803 -0.902331
-0.978885 -0.120736 -0.164944
0.373996 0.656453 -0.655131
-0.559088 -0.672627 -0.484762
-0.796223 -0.219579 0.56375
0.306271 -0.621394 -0.721157
0.811666 -0.307508 -0.496626
-0.147799 0.544566 -0.825593
-0.754287 0.354192 -0.55281
0.175964 -0.799087 -0.574888
-0.444526 -0.609759 -0.656194
0.0486717 -0.738254 -0.672765
-0.580064 -0.783759 -0.221918
0.654365 -0.73835 -0.163234
0.316431 0.590157 -0.742688
0.124082 -0.978896 0.162377
-0.428444 -0.451443 -0.78271
0.836132 0.374488 0.400801
-0.918336 0.383724 0.0970311
0.0472449 -0.434952 0.899214
0.818938 -0.54221 0.188013
0.73026 0.645347 0.22416
-0.290609 -0.92242 0.254336
-0.660967 0.525282 0.535912
-0.749823 0.587295 -0.304712
-0.690744 0.722237 0.0353023
-0.650994 -0.759031 0.00887559
0.373616 -0.770164 0.516971
-0.67894 0.57071 -0.461877
0.758089 -0.55099 0.348871
0.259982 0.0867562 -0.961708
-0.759264 0.234221 0.607173
-0.232287 -0.202392 -0.951357
0.598203 0.722086 -0.347483
-0.407604 0.439407 -0.800488
-0.888704 0.253969 -0.381713
0.147228 0.693155 -0.705592
ITEM: TIMESTEP
6020
ITEM: NUMBER OF ATOMS
54
ITEM: BOX BOUNDS pp pp pp
0.0000000000000000e+00 8.6303750400000006e+00
0.0000000000000000e+00 8.6303750400000006e+00
0.0000000000000000e+00 8.6303750400000006e+00
ITEM: ATOMS c_outsp[1] c_outsp[2] c_outsp[3]
0.774453 -0.58896 0.230973
0.417894 -0.523453 -0.742537
0.482047 0.313149 -0.818272
0.839625 -0.529839 -0.119588
0.396162 -0.474148 0.786282
-0.332318 0.548844 0.76703
0.378489 0.605325 -0.700234
0.309249 0.0318709 -0.950447
0.524642 -0.366242 0.768516
-0.565492 -0.426529 0.705898
-0.511462 0.34642 -0.786384
0.643268 0.69245 -0.326681
0.967786 0.0861269 -0.236584
0.0394668 -0.390955 0.919563
-0.564874 -0.0198808 -0.824938
0.493354 0.829535 0.261674
0.0242772 0.749136 0.661971
0.353437 -0.230379 -0.906646
-0.980664 -0.0751117 -0.18071
0.394322 0.645859 -0.653741
-0.605791 -0.621941 -0.496192
-0.796254 -0.18896 0.574695
0.281503 -0.666977 -0.689853
0.821813 -0.324357 -0.468418
-0.138084 0.562846 -0.814946
-0.730396 0.383382 -0.565279
0.164154 -0.795191 -0.583716
-0.473718 -0.611683 -0.633589
0.0617286 -0.699227 -0.71223
-0.598102 -0.768004 -0.229006
0.638695 -0.748095 -0.180063
0.355117 0.593172 -0.722522
0.101515 -0.984768 0.141159
-0.430433 -0.454964 -0.779574
0.836507 0.377581 0.3971
-0.910417 0.39865 0.110542
0.0630482 -0.38345 0.921407
0.812971 -0.552421 0.184143
0.760613 0.619238 0.194968
-0.328894 -0.907798 0.260252
-0.668501 0.51038 0.540942
-0.759313 0.578462 -0.298036
-0.661099 0.749894 0.0246485
-0.672426 -0.740136 0.00655303
0.328046 -0.795383 0.509658
-0.664672 0.573041 -0.479411
0.734822 -0.570424 0.366952
0.259098 0.095156 -0.961152
-0.722052 0.287658 0.629201
-0.261211 -0.195482 -0.945281
0.635599 0.670922 -0.381938
-0.420021 0.4267 -0.800943
-0.868233 0.287616 -0.404287
0.170758 0.691291 -0.702111
ITEM: TIMESTEP
6025
ITEM: NUMBER OF ATOMS
54
ITEM: BOX BOUNDS pp pp pp
0.0000000000000000e+00 8.6303750400000006e+00
0.0000000000000000e+00 8.6303750400000006e+00
0.0000000000000000e+00 8.6303750400000006e+00
ITEM: ATOMS c_outsp[1] c_outsp[2] c_outsp[3]
0.760847 -0.61029 0.220587
0.409066 -0.513026 -0.754632
0.499464 0.319216 -0.80538
0.812907 -0.571816 -0.110489
0.351638 -0.468856 0.810262
-0.365571 0.528046 0.766502
0.41096 0.598484 -0.687698
0.314611 -0.00623628 -0.9492
0.523956 -0.411912 0.745519
-0.569775 -0.454974 0.684365
-0.490788 0.394494 -0.776854
0.654894 0.679135 -0.331496
0.973884 0.0323354 -0.224734
0.0378565 -0.403791 0.914068
-0.538109 -0.0142447 -0.842755
0.495247 0.813284 0.305449
0.0579312 0.746246 0.663145
0.356195 -0.212517 -0.909924
-0.979912 -0.0296975 -0.197209
0.413365 0.634881 -0.652729
-0.64756 -0.568216 -0.507736
-0.794661 -0.159759 0.585655
0.254103 -0.709716 -0.657065
0.830137 -0.341778 -0.440523
-0.128239 0.580691 -0.80396
-0.70547 0.411818 -0.576818
0.153334 -0.790946 -0.592362
-0.503559 -0.611226 -0.610598
0.0778129 -0.658849 -0.74824
-0.615377 -0.752203 -0.23559
0.623125 -0.757009 -0.196602
0.392521 0.595286 -0.701115
0.0790061 -0.989649 0.119804
-0.434181 -0.457445 -0.776035
0.836579 0.380301 0.394345
-0.902057 0.413233 0.124627
0.080152 -0.33146 0.940058
0.806695 -0.562816 0.180228
0.789288 0.591259 0.16564
-0.366047 -0.891985 0.265276
-0.675517 0.495688 0.545867
-0.769005 0.570022 -0.289319
-0.63036 0.776162 0.0147853
-0.693505 -0.720437 0.00465599
0.281143 -0.81809 0.501684
-0.650069 0.574472 -0.497385
0.710398 -0.589754 0.384089
0.258464 0.102788 -0.960537
-0.681187 0.338348 0.649234
-0.289823 -0.186762 -0.938681
0.669178 0.616034 -0.415575
-0.434138 0.416249 -0.798912
-0.845522 0.318216 -0.428756
0.195707 0.68872 -0.698115
ITEM: TIMESTEP
6030
ITEM: NUMBER OF ATOMS
54
ITEM: BOX BOUNDS pp pp pp
0.0000000000000000e+00 8.6303750400000006e+00
0.0000000000000000e+00 8.6303750400000006e+00
0.0000000000000000e+00 8.6303750400000006e+00
ITEM: ATOMS c_outsp[1] c_outsp[2] c_outsp[3]
0.746981 -0.630981 0.209479
0.401954 -0.501383 -0.766191
0.516362 0.325154 -0.79224
0.783285 -0.613235 -0.102015
0.305733 -0.461751 0.832654
-0.399626 0.508487 0.762719
0.44251 0.590136 -0.675222
0.318368 -0.0443266 -0.94693
0.521498 -0.457697 0.720107
-0.57538 -0.481643 0.661029
-0.466488 0.441259 -0.766602
0.666057 0.665832 -0.336208
0.976735 -0.0217474 -0.213344
0.0365175 -0.417221 0.908071
-0.5102 -0.00886245 -0.86001
0.495815 0.795368 0.34865
0.0909354 0.740742 0.665606
0.360825 -0.194565 -0.912113
-0.976623 0.0153422 -0.214409
0.431129 0.623652 -0.652063
-0.684255 -0.511977 -0.519303
-0.791557 -0.13204 0.59666
0.224347 -0.749416 -0.622931
0.836677 -0.359632 -0.413082
-0.118271 0.598088 -0.792656
-0.679558 0.439448 -0.58744
0.143499 -0.78639 -0.600832
-0.53384 -0.608333 -0.587321
0.0969388 -0.617529 -0.780552
-0.631949 -0.736387 -0.24161
0.607719 -0.765103 -0.212826
0.428599 0.596505 -0.67859
0.0565928 -0.993538 0.0983885
-0.439595 -0.458796 -0.77218
0.836383 0.382615 0.392516
-0.893224 0.427492 0.139291
0.0984694 -0.279231 0.955162
0.800132 -0.57335 0.176235
0.816183 0.561502 0.136238
-0.402013 -0.87508 0.269482
-0.681963 0.481312 0.550695
-0.778768 0.562045 -0.278615
-0.598648 0.800992 0.00571748
-0.714219 -0.699915 0.00315553
0.233014 -0.838166 0.493135
-0.635138 0.574962 -0.515769
0.684799 -0.608911 0.400347
0.258065 0.109633 -0.959887
-0.637005 0.386058 0.667221
-0.317984 -0.176189 -0.931581
0.69857 0.557743 -0.448244
-0.449637 0.408294 -0.794433
-0.820805 0.345404 -0.454944
0.222083 0.685277 -0.693596
ITEM: TIMESTEP
6035
ITEM: NUMBER OF ATOMS
54
ITEM: BOX BOUNDS pp pp pp
0.0000000000000000e+00 8.6303750400000006e+00
0.0000000000000000e+00 8.6303750400000006e+00
0.0000000000000000e+00 8.6303750400000006e+00
ITEM: ATOMS c_outsp[1] c_outsp[2] c_outsp[3]
0.732885 -0.651017 0.197628
0.396668 -0.488665 -0.777085
0.532782 0.33095 -0.778855
0.750722 -0.653857 -0.0942779
0.258572 -0.452791 0.8533
-0.43428 0.490338 0.755625
0.473067 0.580357 -0.662867
0.320447 -0.0823058 -0.943684
0.517137 -0.503392 0.692218
-0.582159 -0.506417 0.636108
-0.438751 0.486473 -0.755541
0.676796 0.652512 -0.340845
0.976321 -0.0758392 -0.202596
0.0353811 -0.431234 0.901546
-0.481138 -0.00378252 -0.876637
0.494998 0.775849 0.391197
0.123077 0.732717 0.669312
0.36733 -0.17665 -0.913161
-0.970807 0.0598386 -0.232277
0.44763 0.612293 -0.651709
-0.715798 -0.45374 -0.530803
-0.787048 -0.10585 0.607743
0.192514 -0.785919 -0.587596
0.841487 -0.377798 -0.386224
-0.108186 0.615024 -0.781052
-0.65271 0.466218 -0.597169
0.134638 -0.781556 -0.609133
-0.564344 -0.602972 -0.563862
0.119072 -0.575693 -0.80895
-0.647878 -0.720583 -0.247013
0.59254 -0.77239 -0.228712
0.463314 0.596844 -0.655071
0.0343116 -0.996441 0.0769932
-0.44656 -0.458935 -0.76809
0.835957 0.384492 0.39159
-0.883884 0.441439 0.154533
0.117904 -0.227003 0.966731
0.793309 -0.583978 0.172133
0.841201 0.530066 0.106825
-0.436745 -0.85718 0.272939
-0.687796 0.467361 0.555437
-0.788467 0.554588 -0.265992
-0.56608 0.824347 -0.00255287
-0.734548 -0.678553 0.00202016
0.183772 -0.855499 0.484096
-0.619888 0.574468 -0.534532
0.658005 -0.627812 0.415791
0.257884 0.115673 -0.959227
-0.589861 0.430592 0.683121
-0.345542 -0.163731 -0.924009
0.72344 0.496417 -0.479797
-0.466168 0.403038 -0.787558
-0.794358 0.368846 -0.482648
0.249869 0.68079 -0.688543
ITEM: TIMESTEP
6040
ITEM: NUMBER OF ATOMS
54
ITEM: BOX BOUNDS pp pp pp
0.0000000000000000e+00 8.6303750400000006e+00
0.0000000000000000e+00 8.6303750400000006e+00
0.0000000000000000e+00 8.6303750400000006e+00
ITEM: ATOMS c_outsp[1] c_outsp[2] c_outsp[3]
0.718586 -0.670376 0.185013
0.393298 -0.47503 -0.787187
0.548764 0.336586 -0.765224
0.715202 -0.693433 -0.0873895
0.210297 -0.441938 0.872047
-0.46931 0.473756 0.745187
0.502566 0.569229 -0.650696
0.320779 -0.120076 -0.939512
0.510754 -0.548768 0.661804
-0.589968 -0.529201 0.609823
-0.407785 0.529908 -0.743578
0.687144 0.639146 -0.345435
0.97266 -0.129652 -0.192671
0.0343815 -0.445812 0.894466
-0.450922 0.000946748 -0.892563
0.492736 0.754793 0.433011
0.154153 0.722274 0.674209
0.375707 -0.158902 -0.913014
-0.962482 0.10362 -0.250781
0.462895 0.600918 -0.651634
-0.742172 -0.394016 -0.542155
-0.781235 -0.0812256 0.61893
0.158887 -0.819099 -0.551209
0.84463 -0.396172 -0.360066
-0.097997 0.631491 -0.769166
-0.624975 0.492065 -0.606034
0.126736 -0.776476 -0.617271
-0.594854 -0.595143 -0.540327
0.14413 -0.533778 -0.833251
-0.663222 -0.704811 -0.251749
0.577652 -0.778888 -0.244239
0.496638 0.596322 -0.630675
0.0121994 -0.998373 0.0556959
-0.454944 -0.457789 -0.763843
0.835335 0.385897 0.391535
-0.874003 0.455083 0.170346
0.138352 -0.175003 0.974799
0.786254 -0.594656 0.167893
0.86425 0.497063 0.0774566
-0.470208 -0.838382 0.275717
-0.692982 0.453941 0.560102
-0.797973 0.547695 -0.251533
-0.532773 0.846199 -0.0100261
-0.75447 -0.656333 0.00121589
0.133539 -0.869986 0.47465
-0.604332 0.572946 -0.553638
0.629998 -0.646365 0.430483
0.257908 0.120897 -0.958576
-0.540124 0.471793 0.696905
-0.372337 -0.14937 -0.915999
0.743491 0.432467 -0.510092
-0.483361 0.400645 -0.778361
-0.766486 0.388236 -0.511636
0.279025 0.675084 -0.68294
ITEM: TIMESTEP
6045
ITEM: NUMBER OF ATOMS
54
ITEM: BOX BOUNDS pp pp pp
0.0000000000000000e+00 8.6303750400000006e+00
0.0000000000000000e+00 8.6303750400000006e+00
0.0000000000000000e+00 8.6303750400000006e+00
ITEM: ATOMS c_outsp[1] c_outsp[2] c_outsp[3]
0.704115 -0.689035 0.171619
0.391914 -0.460652 -0.796368
0.564351 0.342037 -0.751344
0.676734 -0.731706 -0.0814657
0.161069 -0.429162 0.88875
-0.504473 0.45888 0.731393
0.530946 0.556841 -0.638769
0.319296 -0.157535 -0.934469
0.502243 -0.593568 0.628831
-0.598666 -0.549925 0.582393
-0.373812 0.571356 -0.730627
0.697133 0.6257 -0.350008
0.965809 -0.182899 -0.183741
0.0334574 -0.460931 0.886805
-0.419557 0.00527743 -0.907714
0.488971 0.732269 0.474015
0.183974 0.709528 0.680237
0.385936 -0.141453 -0.911616
-0.95168 0.146513 -0.269889
0.476958 0.58963 -0.651803
-0.763411 -0.333293 -0.553281
-0.774209 -0.0581912 0.63025
0.123749 -0.848863 -0.513924
0.846178 -0.414668 -0.334713
-0.087716 0.647481 -0.757017
-0.596404 0.516926 -0.614076
0.119773 -0.771177 -0.625253
-0.625152 -0.584875 -0.516823
0.171983 -0.492226 -0.853308
-0.678039 -0.689087 -0.255776
0.563114 -0.784617 -0.259381
0.528547 0.594967 -0.605518
-0.00970763 -0.999355 0.0345722
-0.464596 -0.455299 -0.759509
0.834552 0.386798 0.392314
-0.863547 0.468426 0.186717
0.1597 -0.123448 0.979416
0.778998 -0.605339 0.163483
0.885251 0.462611 0.0481889
-0.502377 -0.81878 0.27788
-0.697493 0.441155 0.564699
-0.807161 0.541394 -0.235337
-0.498843 0.866531 -0.016704
-0.773957 -0.633238 0.000706445
0.0824465 -0.88153 0.464874
-0.588488 0.570353 -0.573044
0.600764 -0.664469 0.444482
0.258125 0.12529 -0.957953
-0.488167 0.509545 0.70856
-0.398199 -0.133105 -0.907591
0.758476 0.366342 -0.538988
-0.500827 0.40123 -0.766933
-0.737531 0.40331 -0.541654
0.309484 0.667983 -0.67677
ITEM: TIMESTEP
6050
ITEM: NUMBER OF ATOMS
54
ITEM: BOX BOUNDS pp pp pp
0.0000000000000000e+00 8.6303750400000006e+00
0.0000000000000000e+00 8.6303750400000006e+00
0.0000000000000000e+00 8.6303750400000006e+00
ITEM: ATOMS c_outsp[1] c_outsp[2] c_outsp[3]
0.689502 -0.706967 0.157431
0.392561 -0.44572 -0.804506
0.579583 0.347274 -0.737214
0.63535 -0.768413 -0.0766232
0.111064 -0.414444 0.903273
-0.539512 0.445829 0.714258
0.558151 0.543284 -0.627144
0.315937 -0.19458 -0.928613
0.491514 -0.637516 0.593285
-0.608123 -0.568536 0.554034
-0.337067 0.610628 -0.716603
0.706791 0.612136 -0.354592
0.955861 -0.235293 -0.175973
0.0325514 -0.476561 0.878539
-0.387062 0.00916228 -0.922008
0.483644 0.708347 0.514132
0.212365 0.694607 0.68733
0.39799 -0.124442 -0.90891
-0.938444 0.188341 -0.289568
0.489864 0.578522 -0.652185
-0.779599 -0.27204 -0.564109
-0.766053 -0.036761 0.641725
0.0873783 -0.875147 -0.475901
0.846206 -0.433214 -0.310259
-0.0773584 0.662991 -0.74462
-0.567049 0.540731 -0.621342
0.113728 -0.765682 -0.633086
-0.655026 -0.572225 -0.493457
0.202456 -0.451475 -0.869012
-0.692384 -0.673421 -0.259054
0.548986 -0.789604 -0.274116
0.559027 0.59281 -0.579711
-0.0313741 -0.999414 0.0136954
-0.475353 -0.451419 -0.755156
0.833643 0.38716 0.393886
-0.852482 0.481466 0.203629
0.18183 -0.0725387 0.980651
0.77157 -0.615985 0.158876
0.904127 0.426838 0.0190724
-0.533235 -0.798464 0.279492
-0.701312 0.429103 0.569239
-0.815913 0.535699 -0.217512
-0.464399 0.885338 -0.0225896
-0.792975 -0.609254 0.000453301
0.0306302 -0.890045 0.454843
-0.572377 0.566644 -0.592705
0.570293 -0.682015 0.457844
0.258522 0.128845 -0.957374
-0.434369 0.543767 0.718081
-0.422952 -0.114952 -0.898831
0.768197 0.298522 -0.566355
-0.518168 0.404863 -0.753384
-0.707856 0.41385 -0.572423
0.341154 0.659316 -0.670012
ITEM: TIMESTEP
6055
ITEM: NUMBER OF ATOMS
54
ITEM: BOX BOUNDS pp pp pp
0.0000000000000000e+00 8.6303750400000006e+00
0.0000000000000000e+00 8.6303750400000006e+00
0.0000000000000000e+00 8.6303750400000006e+00
ITEM: ATOMS c_outsp[1] c_outsp[2] c_outsp[3]
0.674782 -0.724141 0.142442
0.395257 -0.430432 -0.81148
0.594502 0.352259 -0.722828
0.59111 -0.803282 -0.072979
0.0604702 -0.397771 0.91549
-0.574155 0.434698 0.693819
0.584133 0.52866 -0.615879
0.310646 -0.231102 -0.922004
0.478497 -0.680312 0.555172
-0.618217 -0.585002 0.524957
-0.297792 0.647548 -0.701428
0.716143 0.598417 -0.359216
0.942946 -0.286558 -0.16952
0.0316108 -0.492667 0.869643
-0.353462 0.0125549 -0.935365
0.476701 0.683105 0.553285
0.239165 0.677645 0.695412
0.411827 -0.108008 -0.904839
-0.922834 0.228931 -0.309787
0.501663 0.567676 -0.652747
-0.790866 -0.210697 -0.574577
-0.756842 -0.0169416 0.653379
0.0500461 -0.897922 -0.437301
0.844791 -0.451756 -0.286784
-0.06694 0.678018 -0.731991
-0.536967 0.563405 -0.627886
0.108576 -0.760011 -0.640776
-0.684272 -0.557275 -0.470336
0.23533 -0.411952 -0.880293
-0.706308 -0.657815 -0.261551
0.535325 -0.793878 -0.288418
0.588067 0.589891 -0.55336
-0.0527665 -0.998583 -0.0068653
-0.487038 -0.446122 -0.750846
0.832642 0.386948 0.396205
-0.840774 0.494198 0.221059
0.204616 -0.0224616 0.978585
0.764002 -0.626554 0.154044
0.920813 0.38988 -0.00984661
-0.562776 -0.777523 0.280609
-0.704427 0.417876 0.573727
-0.82412 0.530614 -0.198179
-0.429546 0.902621 -0.0276862
-0.811487 -0.58437 0.000415849
-0.0217652 -0.895452 0.444627
-0.556025 0.561777 -0.61257
0.538585 -0.698887 0.470621
0.25909 0.131552 -0.956852
-0.379104 0.574419 0.725481
-0.44642 -0.094945 -0.889772
0.772515 0.22951 -0.59207
-0.534983 0.411563 -0.737841
-0.677849 0.419687 -0.603641
0.37392 0.648916 -0.66264
ITEM: TIMESTEP
6060
ITEM: NUMBER OF ATOMS
54
ITEM: BOX BOUNDS pp pp pp
0.0000000000000000e+00 8.6303750400000006e+00
0.0000000000000000e+00 8.6303750400000006e+00
0.0000000000000000e+00 8.6303750400000006e+00
ITEM: ATOMS c_outsp[1] c_outsp[2] c_outsp[3]
0.659988 -0.740524 0.126648
0.399999 -0.414995 -0.817178
0.609147 0.356954 -0.708183
0.5441 -0.836041 -0.0706483
0.00949124 -0.379142 0.92529
-0.608123 0.425559 0.670139
0.608851 0.51307 -0.605029
0.303377 -0.266994 -0.9147
0.463145 -0.721643 0.514518
-0.62884 -0.59931 0.495366
-0.25624 0.681962 -0.685032
0.725209 0.584502 -0.363908
0.927227 -0.336427 -0.164523
0.0305875 -0.509213 0.860097
-0.318796 0.01541 -0.947698
0.468086 0.656618 0.591394
0.264226 0.658787 0.704404
0.427392 -0.0922921 -0.899343
-0.90492 0.268108 -0.330512
0.51241 0.557161 -0.653458
-0.797376 -0.149671 -0.584628
-0.746638 0.0012668 0.665229
0.0120148 -0.917183 -0.398286
0.842008 -0.470252 -0.264359
-0.0564775 0.692563 -0.719143
-0.506219 0.584874 -0.633771
0.10429 -0.754184 -0.648329
-0.712698 -0.540136 -0.447565
0.270351 -0.374072 -0.887119
-0.719858 -0.64227 -0.263237
0.522187 -0.79747 -0.302262
0.615662 0.586251 -0.526565
-0.0738528 -0.996902 -0.0270447
-0.499465 -0.439395 -0.746637
0.831582 0.386127 0.399221
-0.828391 0.506613 0.238978
0.22793 0.0266137 0.973314
0.756326 -0.637009 0.148961
0.935253 0.351877 -0.0385263
-0.590998 -0.756042 0.281286
-0.706834 0.40756 0.57817
-0.831683 0.526127 -0.177463
-0.394382 0.918389 -0.0319965
-0.829454 -0.558575 0.000551492
-0.0745878 -0.89768 0.43429
-0.539463 0.555711 -0.632586
0.505644 -0.714961 0.482861
0.259821 0.133404 -0.956397
-0.322745 0.601495 0.73078
-0.468424 -0.0731409 -0.880471
0.771347 0.159826 -0.616019
-0.550878 0.4213 -0.720444
-0.647914 0.42071 -0.634988
0.407638 0.636627 -0.654628
ITEM: TIMESTEP
6065
ITEM: NUMBER OF ATOMS
54
ITEM: BOX BOUNDS pp pp pp
0.0000000000000000e+00 8.6303750400000006e+00
0.0000000000000000e+00 8.6303750400000006e+00
0.0000000000000000e+00 8.6303750400000006e+00
ITEM: ATOMS c_outsp[1] c_outsp[2] c_outsp[3]
0.645159 -0.756081 0.110052
0.406752 -0.399622 -0.821495
0.623558 0.361312 -0.693274
0.494436 -0.866411 -0.0697436
-0.0416602 -0.358569 0.932573
-0.641131 0.418461 0.643305
0.632267 0.496625 -0.594644
0.29409 -0.302145 -0.906763
0.445437 -0.761177 0.471376
-0.639897 -0.611458 0.465458
-0.212667 0.713731 -0.667354
0.734006 0.57035 -0.368695
0.908895 -0.384647 -0.161108
0.0294384 -0.526155 0.849879
-0.283112 0.0176837 -0.958924
0.457745 0.628972 0.628382
0.28742 0.638186 0.714219
0.444618 -0.0774388 -0.892366
-0.884787 0.305702 -0.351709
0.522165 0.547038 -0.654288
-0.79933 -0.0893353 -0.594215
-0.735497 0.0178686 0.677292
-0.0264654 -0.932955 -0.359019
0.837932 -0.488671 -0.243044
-0.0459868 0.706631 -0.706087
-0.47487 0.605059 -0.639064
0.100845 -0.748214 -0.655748
-0.740124 -0.520941 -0.425249
0.307226 -0.338227 -0.889502
-0.733077 -0.626782 -0.26409
0.509623 -0.800417 -0.315622
0.641812 0.58194 -0.499423
-0.0946035 -0.994415 -0.0467827
-0.512442 -0.431248 -0.742583
0.830497 0.384662 0.402878
-0.815304 0.518698 0.257355
0.25164 0.0745342 0.964947
0.748573 -0.647316 0.143601
0.947399 0.312979 -0.06693
-0.617911 -0.7341 0.281573
-0.708531 0.398235 0.582574
-0.838515 0.522218 -0.1555
-0.359002 0.932661 -0.0355229
-0.84683 -0.531864 0.000815772
-0.127679 -0.896667 0.423893
-0.522726 0.548405 -0.652694
0.471489 -0.730112 0.494605
0.260711 0.134397 -0.956016
-0.265653 0.625022 0.734014
-0.488787 -0.0496152 -0.870991
0.764675 0.0899977 -0.638101
-0.565469 0.433993 -0.701353
-0.618463 0.416866 -0.666128
0.442142 0.622305 -0.645946
ITEM: TIMESTEP
6070
ITEM: NUMBER OF ATOMS
54
ITEM: BOX BOUNDS pp pp pp
0.0000000000000000e+00 8.6303750400000006e+00
0.0000000000000000e+00 8.6303750400000006e+00
0.0000000000000000e+00 8.6303750400000006e+00
ITEM: ATOMS c_outsp[1] c_outsp[2] c_outsp[3]
0.630334 -0.770774 0.0926639
0.415459 -0.384528 -0.824337
0.637773 0.365283 -0.678096
0.442265 -0.894119 -0.0703726
-0.0927626 -0.336072 0.937257
-0.672893 0.413423 0.61343
0.654355 0.479435 -0.584775
0.282754 -0.336444 -0.898251
0.42538 -0.798578 0.425822
-0.651308 -0.621458 0.435416
-0.167335 0.742731 -0.648344
0.742544 0.55592 -0.373605
0.888172 -0.430985 -0.159383
0.0281247 -0.543451 0.83897
-0.246471 0.0193337 -0.968957
0.445624 0.600252 0.664166
0.308634 0.616 0.724769
0.463423 -0.0635926 -0.883852
-0.862533 0.341544 -0.373343
0.530992 0.537354 -0.655209
-0.79695 -0.030028 -0.603298
-0.723465 0.0328713 0.689578
-0.0651579 -0.945288 -0.319664
0.832632 -0.506996 -0.222887
-0.0354834 0.720227 -0.69283
-0.442991 0.623883 -0.643839
0.0982146 -0.742118 -0.663034
-0.766391 -0.499844 -0.403486
0.345637 -0.304781 -0.887493
-0.746002 -0.61134 -0.264091
0.497682 -0.802758 -0.32847
0.666523 0.57701 -0.472024
-0.114992 -0.99117 -0.0660249
-0.525772 -0.421707 -0.738733
0.829418 0.38252 0.407118
-0.801484 0.530437 0.276152
0.275611 0.121164 0.953603
0.740771 -0.657443 0.13794
0.957213 0.273337 -0.0950259
-0.643527 -0.711774 0.281514
-0.709523 0.389969 0.586942
-0.844542 0.518857 -0.132425
-0.323489 0.945458 -0.0382659
-0.863566 -0.504234 0.00116251
-0.180871 -0.892363 0.413489
-0.505854 0.539824 -0.672831
0.436146 -0.744211 0.505892
0.261754 0.134524 -0.955713
-0.208177 0.64506 0.735228
-0.507341 -0.0244641 -0.861398
0.75254 0.0205525 -0.658226
-0.578394 0.449512 -0.680734
-0.58991 0.408165 -0.696712
0.477245 0.605825 -0.636563
ITEM: TIMESTEP
6075
ITEM: NUMBER OF ATOMS
54
ITEM: BOX BOUNDS pp pp pp
0.0000000000000000e+00 8.6303750400000006e+00
0.0000000000000000e+00 8.6303750400000006e+00
0.0000000000000000e+00 8.6303750400000006e+00
ITEM: ATOMS c_outsp[1] c_outsp[2] c_outsp[3]
0.615555 -0.784565 0.0744989
0.426034 -0.369926 -0.825621
0.651827 0.368814 -0.662644
0.387765 -0.918892 -0.0726367
-0.143588 -0.311686 0.939273
-0.703126 0.410441 0.580648
0.675092 0.461615 -0.575467
0.269349 -0.369781 -0.889221
0.403011 -0.833503 0.37796
-0.663008 -0.629333 0.405414
-0.120505 0.768854 -0.627967
0.750833 0.541169 -0.378662
0.865298 -0.475226 -0.159437
0.0266126 -0.561054 0.827352
-0.208944 0.0203193 -0.977716
0.431672 0.570551 0.698664
0.327771 0.592393 0.735959
0.483712 -0.050898 -0.873746
-0.838271 0.375472 -0.395377
0.538956 0.528146 -0.656193
-0.790481 0.027952 -0.611848
-0.710577 0.0462837 0.702096
-0.103842 -0.954255 -0.280383
0.826173 -0.525214 -0.20393
-0.0249809 0.733361 -0.679381
-0.410662 0.641269 -0.648175
0.0963732 -0.73591 -0.670186
-0.791355 -0.477019 -0.382374
0.385239 -0.274069 -0.881179
-0.758667 -0.595934 -0.263224
0.486407 -0.804536 -0.340778
0.689803 0.571517 -0.444455
-0.134994 -0.987218 -0.0847223
-0.53926 -0.410822 -0.735135
0.828377 0.379667 0.411878
-0.786905 0.541812 0.295329
0.299707 0.166385 0.93941
0.732949 -0.667363 0.131954
0.964668 0.233108 -0.122788
-0.667867 -0.689135 0.281152
-0.709817 0.382822 0.591276
-0.849702 0.516004 -0.108379
-0.287925 0.956808 -0.0402246
-0.879612 -0.475689 0.00154396
-0.233993 -0.884725 0.403125
-0.488893 0.529933 -0.692932
0.399653 -0.75713 0.516751
0.262949 0.133783 -0.955489
-0.150654 0.661697 0.73448
-0.523923 0.00219619 -0.851763
0.735044 -0.0479913 -0.676319
-0.589321 0.467684 -0.658766
-0.562664 0.394685 -0.726384
0.51274 0.587079 -0.626447
ITEM: TIMESTEP
6080
ITEM: NUMBER OF ATOMS
54
ITEM: BOX BOUNDS pp pp pp
0.0000000000000000e+00 8.6303750400000006e+00
0.0000000000000000e+00 8.6303750400000006e+00
0.0000000000000000e+00 8.6303750400000006e+00
ITEM: ATOMS c_outsp[1] c_outsp[2] c_outsp[3]
0.600866 -0.797415 0.0555813
0.438367 -0.356026 -0.825276
0.665755 0.371848 -0.646915
0.331145 -0.940463 -0.0766286
-0.193906 -0.285457 0.938571
-0.731554 0.409483 0.545117
0.694465 0.443283 -0.566761
0.253862 -0.402045 -0.879724
0.378397 -0.865611 0.327921
-0.674947 -0.635109 0.37561
-0.0724396 0.792008 -0.606198
0.758876 0.526056 -0.383892
0.840534 -0.517178 -0.161339
0.0248726 -0.578915 0.815008
-0.170616 0.0206022 -0.985122
0.415837 0.539968 0.731788
0.344756 0.567534 0.747695
0.505371 -0.0394988 -0.861998
-0.812125 0.40733 -0.417774
0.546124 0.51944 -0.657215
-0.780182 0.0843427 -0.619841
-0.696863 0.0581148 0.714846
-0.142314 -0.95995 -0.241335
0.818614 -0.543323 -0.186206
-0.0144911 0.746043 -0.665741
-0.377964 0.657143 -0.652155
0.095297 -0.729602 -0.6772
-0.814897 -0.452652 -0.362005
0.425668 -0.246391 -0.870688
-0.771099 -0.580547 -0.261479
0.475838 -0.805798 -0.352517
0.711666 0.565522 -0.416794
-0.154587 -0.982613 -0.102833
-0.55271 -0.398661 -0.731834
0.827407 0.37607 0.417095