ITEM: TIMESTEP
3000
ITEM: NUMBER OF ATOMS
54
ITEM: BOX BOUNDS pp pp pp
0.0000000000000000e+00 8.6303750400000006e+00
0.0000000000000000e+00 8.6303750400000006e+00
0.0000000000000000e+00 8.6303750400000006e+00
ITEM: ATOMS c_outsp[1] c_outsp[2] c_outsp[3]
0.663474 0.628213 -0.406387
0.973259 0.219077 0.0690841
-0.795689 -0.431867 0.4247
-0.016873 -0.0360592 -0.999207
0.608889 0.733943 0.300967
0.817709 0.0456853 -0.573816
0.775458 0.474439 0.41662
0.148588 0.710255 -0.688083
-0.768501 -0.547564 0.331028
0.182256 -0.700826 -0.689656
-0.541774 -0.00581124 -0.840504
0.171179 0.300934 0.938156
0.556289 -0.666353 -0.496504
0.602756 -0.693621 -0.39443
0.505165 -0.125636 -0.853829
0.101678 -0.817283 -0.567195
-0.295457 -0.80365 -0.516577
0.16058 0.543085 0.82418
0.823323 -0.567221 0.0199655
-0.50548 0.664128 0.550839
0.756109 0.0942617 -0.647622
-0.763687 0.501977 -0.405956
0.326674 -0.806686 -0.492486
0.0478049 -0.352895 -0.934441
-0.894192 0.347703 0.282
0.683785 0.55088 -0.478508
-0.367767 0.254399 0.894443
-0.24282 0.911405 0.332232
-0.0139722 -0.374479 -0.92713
-0.371929 0.292554 -0.880954
-0.171191 -0.745433 0.644223
0.799332 0.439397 -0.409875
0.258745 -0.578987 -0.773192
-0.503793 -0.255579 0.82515
-0.527109 -0.807165 0.265782
-0.59987 0.47608 -0.643043
0.632154 -0.501082 -0.591014
-0.819981 0.0552491 0.569718
0.262268 0.101637 0.959628
0.630044 -0.140691 -0.763709
0.143164 0.645645 0.750098
0.703122 -0.0995252 -0.70407
-0.644661 -0.755684 0.11556
-0.016127 -0.793303 -0.608614
-0.621071 0.770754 0.142162
-0.761773 0.438145 -0.477211
-0.74459 -0.289365 -0.601543
0.208223 0.818609 0.535278
-0.394037 -0.322688 0.860585
-0.368814 -0.174701 -0.912938
-0.0654515 0.981911 -0.177671
0.312539 -0.75939 -0.570654
-0.862042 -0.431418 -0.266011
0.224092 -0.395451 -0.890731
ITEM: TIMESTEP
3005
ITEM: NUMBER OF ATOMS
54
ITEM: BOX BOUNDS pp pp pp
0.0000000000000000e+00 8.6303750400000006e+00
0.0000000000000000e+00 8.6303750400000006e+00
0.0000000000000000e+00 8.6303750400000006e+00
ITEM: ATOMS c_outsp[1] c_outsp[2] c_outsp[3]
0.681489 0.625374 -0.380105
0.985783 0.148107 0.0793432
-0.811195 -0.421822 0.405006
-0.00640866 0.00239158 -0.999977
0.655844 0.689733 0.306818
0.823784 0.0173773 -0.566638
0.787516 0.467069 0.402076
0.205241 0.691371 -0.692735
-0.788725 -0.530248 0.311047
0.155422 -0.691444 -0.705513
-0.55037 -0.00323812 -0.834915
0.185252 0.309061 0.932825
0.55049 -0.701433 -0.452716
0.593559 -0.698841 -0.399136
0.555164 -0.136521 -0.82046
0.121821 -0.83106 -0.542678
-0.35587 -0.758446 -0.546
0.171612 0.512665 0.841264
0.794137 -0.60768 0.00844995
-0.468029 0.677133 0.567839
0.764465 0.0611776 -0.641756
-0.743423 0.521073 -0.419291
0.260615 -0.83141 -0.490752
0.0885978 -0.372754 -0.923691
-0.875498 0.396159 0.276699
0.671791 0.561743 -0.482848
-0.385959 0.249264 0.888202
-0.177461 0.934274 0.309258
0.0260725 -0.372745 -0.927568
-0.391341 0.325004 -0.860944
-0.169383 -0.750756 0.638494
0.824178 0.4259 -0.373282
0.235267 -0.582759 -0.777844
-0.564192 -0.22092 0.795538
-0.541043 -0.794591 0.275496
-0.611658 0.50011 -0.612996
0.588157 -0.529688 -0.611148
-0.836919 0.0461178 0.545381
0.277465 0.114068 0.95394
0.620801 -0.136368 -0.772016
0.137003 0.641356 0.754913
0.706865 -0.11494 -0.697948
-0.677723 -0.731296 0.0767979
-0.0685478 -0.799181 -0.597169
-0.619069 0.771789 0.145243
-0.762768 0.45056 -0.463876
-0.73843 -0.255356 -0.624111
0.215647 0.834774 0.506604
-0.42883 -0.293616 0.854339
-0.39391 -0.178303 -0.901689
0.021815 0.98194 -0.187929
0.340634 -0.777502 -0.528639
-0.870669 -0.406663 -0.276696
0.190939 -0.406061 -0.893676
ITEM: TIMESTEP
3010
ITEM: NUMBER OF ATOMS
54
ITEM: BOX BOUNDS pp pp pp
0.0000000000000000e+00 8.6303750400000006e+00
0.0000000000000000e+00 8.6303750400000006e+00
0.0000000000000000e+00 8.6303750400000006e+00
ITEM: ATOMS c_outsp[1] c_outsp[2] c_outsp[3]
0.699476 0.622499 -0.351039
0.993237 0.0770634 0.0868425
-0.826384 -0.411741 0.384134
0.00788662 0.0415193 -0.999107
0.699229 0.643835 0.310732
0.828456 -0.0110047 -0.559945
0.799132 0.459604 0.387496
0.259712 0.666724 -0.69859
-0.807947 -0.513263 0.289452
0.128944 -0.680712 -0.721113
-0.559126 0.000413583 -0.829083
0.199834 0.317108 0.927097
0.540929 -0.735041 -0.408791
0.585157 -0.702789 -0.404574
0.602182 -0.153132 -0.783535
0.141351 -0.843895 -0.517553
-0.411724 -0.707211 -0.574748
0.182058 0.48152 0.857318
0.763335 -0.645985 -0.00478359
-0.428938 0.68837 0.584944
0.771646 0.0283096 -0.635422
-0.722885 0.538943 -0.432409
0.191759 -0.85132 -0.488346
0.128191 -0.391844 -0.911057
-0.854563 0.44268 0.27158
0.660038 0.572197 -0.486766
-0.403775 0.244967 0.881452
-0.109799 0.952077 0.285472
0.0665501 -0.372468 -0.925656
-0.407754 0.357916 -0.840019
-0.167028 -0.757005 0.6317
0.847968 0.409383 -0.336684
0.210457 -0.58467 -0.783498
-0.620429 -0.182857 0.762648
-0.555658 -0.780619 0.286144
-0.621594 0.524486 -0.581839
0.541592 -0.555405 -0.631034
-0.853079 0.0364948 0.520504
0.292489 0.1274 0.947744
0.610832 -0.133727 -0.780386
0.130113 0.63855 0.758501
0.709853 -0.131167 -0.692028
-0.707186 -0.706048 0.0371946
-0.120957 -0.801375 -0.585804
-0.617367 0.772485 0.148742
-0.763414 0.462089 -0.451302
-0.73109 -0.221567 -0.645303
0.223654 0.849622 0.477621
-0.461656 -0.263551 0.847003
-0.419011 -0.180649 -0.889829
0.110214 0.974051 -0.197682
0.366439 -0.794054 -0.484975
-0.878805 -0.38126 -0.286954
0.157462 -0.415991 -0.895633
ITEM: TIMESTEP
3015
ITEM: NUMBER OF ATOMS
54
ITEM: BOX BOUNDS pp pp pp
0.0000000000000000e+00 8.6303750400000006e+00
0.0000000000000000e+00 8.6303750400000006e+00
0.0000000000000000e+00 8.6303750400000006e+00
ITEM: ATOMS c_outsp[1] c_outsp[2] c_outsp[3]
0.717328 0.619331 -0.31917
0.995784 0.00651175 0.0914983
-0.841205 -0.401555 0.362116
0.0260135 0.0809232 -0.996381
0.73907 0.5966 0.3128
0.831715 -0.0393717 -0.553805
0.810343 0.451991 0.372892
0.311374 0.636512 -0.705619
-0.826035 -0.49669 0.266395
0.102899 -0.66868 -0.736396
-0.567921 0.0051736 -0.823067
0.214954 0.325031 0.92095
0.527731 -0.767015 -0.364949
0.577654 -0.705444 -0.410688
0.645411 -0.175181 -0.743476
0.160234 -0.855798 -0.491868
-0.462402 -0.650397 -0.602634
0.191907 0.449669 0.872335
0.731101 -0.681986 -0.0196456
-0.388277 0.697648 0.602103
0.777658 -0.00430216 -0.628673
-0.702131 0.555571 -0.445368
0.120536 -0.866106 -0.485109
0.166505 -0.410063 -0.89673
-0.83159 0.487139 0.266747
0.64852 0.582202 -0.490369
-0.421118 0.241547 0.874251
-0.0402644 0.964535 0.260867
0.107238 -0.373584 -0.921377
-0.421177 0.391026 -0.818357
-0.164178 -0.764149 0.623797
0.870549 0.389928 -0.300169
0.184499 -0.584498 -0.790141
-0.672146 -0.141641 0.726744
-0.570961 -0.765132 0.297619
-0.629578 0.549081 -0.549674
0.49262 -0.578084 -0.650496
-0.868413 0.0264138 0.495138
0.307405 0.141659 0.940975
0.600131 -0.132747 -0.78881
0.122596 0.637302 0.7608
0.712096 -0.148221 -0.686257
-0.7331 -0.680114 -0.00296229
-0.173022 -0.799961 -0.574566
-0.615952 0.772851 0.15266
-0.763779 0.472761 -0.439476
-0.722625 -0.188066 -0.665165
0.232206 0.863135 0.448417
-0.492433 -0.232674 0.838673
-0.444017 -0.181783 -0.877385
0.198932 0.957943 -0.206813
0.38992 -0.808952 -0.439954
-0.886439 -0.355154 -0.296802
0.123843 -0.425184 -0.896594
ITEM: TIMESTEP
3020
ITEM: NUMBER OF ATOMS
54
ITEM: BOX BOUNDS pp pp pp
0.0000000000000000e+00 8.6303750400000006e+00
0.0000000000000000e+00 8.6303750400000006e+00
0.0000000000000000e+00 8.6303750400000006e+00
ITEM: ATOMS c_outsp[1] c_outsp[2] c_outsp[3]
0.734899 0.615618 -0.284497
0.993647 -0.0630015 0.0932581
-0.855603 -0.391193 0.338986
0.0479166 0.120192 -0.991594
0.775419 0.548346 0.313117
0.833556 -0.0676295 -0.548279
0.821188 0.444171 0.358278
0.359613 0.601001 -0.713776
-0.84287 -0.480612 0.242038
0.0773651 -0.655404 -0.751305
-0.576631 0.0110688 -0.81693
0.230636 0.332778 0.914366
0.51104 -0.797206 -0.321404
0.571149 -0.706797 -0.417405
0.684126 -0.202287 -0.700751
0.178438 -0.866781 -0.465672
-0.507323 -0.588537 -0.629482
0.201147 0.417132 0.886307
0.697626 -0.715555 -0.0360386
-0.346143 0.70477 0.619261
0.782508 -0.0366282 -0.621563
-0.681221 0.570938 -0.458223
0.0474236 -0.875502 -0.480882
0.203474 -0.42732 -0.880906
-0.806784 0.529436 0.262292
0.637225 0.591729 -0.493762
-0.43789 0.239035 0.866669
0.0306779 0.971402 0.235452
0.147917 -0.376016 -0.914731
-0.431645 0.424092 -0.796134
-0.160881 -0.772142 0.614747
0.891769 0.367627 -0.263817
0.157607 -0.582035 -0.797744
-0.71902 -0.0975537 0.688108
-0.586943 -0.748012 0.309799
-0.635525 0.573774 -0.516615
0.441424 -0.597576 -0.669364
-0.882873 0.0159086 0.469343
0.322276 0.156853 0.933561
0.588696 -0.13339 -0.797273
0.114563 0.637672 0.761741
0.713599 -0.166113 -0.680575
-0.755552 -0.65365 -0.0433936
-0.224428 -0.795048 -0.563499
-0.614805 0.772896 0.156995
-0.763926 0.482608 -0.428376
-0.713085 -0.154912 -0.683748
0.241263 0.875307 0.419081
-0.521101 -0.201163 0.82945
-0.468834 -0.181757 -0.864383
0.287098 0.933418 -0.215188
0.41108 -0.822116 -0.393877
-0.893552 -0.328287 -0.306257
0.0902764 -0.433596 -0.896574
ITEM: TIMESTEP
3025
ITEM: NUMBER OF ATOMS
54
ITEM: BOX BOUNDS pp pp pp
0.0000000000000000e+00 8.6303750400000006e+00
0.0000000000000000e+00 8.6303750400000006e+00
0.0000000000000000e+00 8.6303750400000006e+00
ITEM: ATOMS c_outsp[1] c_outsp[2] c_outsp[3]
0.752009 0.611108 -0.247043
0.9871 -0.130959 0.0921019
-0.869521 -0.380585 0.314783
0.0734848 0.158913 -0.984554
0.808349 0.499365 0.31178
0.833984 -0.0956796 -0.54343
0.831706 0.436074 0.343664
0.403838 0.560527 -0.722997
-0.858353 -0.465116 0.216557
0.0524234 -0.640954 -0.765787
-0.585132 0.0181227 -0.810736
0.246898 0.340287 0.907329
0.49102 -0.82548 -0.278357
0.565738 -0.706843 -0.424634
0.717697 -0.233984 -0.655868
0.195929 -0.876858 -0.439012
-0.54595 -0.522242 -0.655135
0.209764 0.383924 0.899223
0.663107 -0.746585 -0.0538583
-0.302656 0.709538 0.63636
0.786209 -0.0686488 -0.614136
-0.660213 0.585019 -0.471033
-0.0270599 -0.879293 -0.475512
0.239045 -0.443536 -0.86379
-0.780355 0.5695 0.258295
0.62613 0.600756 -0.497044
-0.453998 0.237452 0.85878
0.10253 0.972472 0.209252
0.18838 -0.379674 -0.905738
-0.439217 0.456893 -0.773522
-0.157174 -0.780929 0.604522
0.911479 0.342574 -0.227704
0.13002 -0.577088 -0.806266
-0.760761 -0.0509037 0.647032
-0.603578 -0.729148 0.322549
-0.639364 0.598445 -0.482782
0.388206 -0.613743 -0.68747
-0.896416 0.00501307 0.443185
0.337156 0.172978 0.925421
0.576528 -0.135599 -0.805747
0.106139 0.639706 0.761256
0.714365 -0.184855 -0.674916
-0.774662 -0.626794 -0.0838329
-0.27488 -0.786779 -0.552648
-0.613901 0.772635 0.161745
-0.76391 0.491672 -0.417972
-0.702511 -0.122161 -0.70111
0.250787 0.886137 0.389701
-0.547621 -0.169196 0.819441
-0.493373 -0.180634 -0.850855
0.373792 0.90039 -0.22266
0.429953 -0.833483 -0.347054
-0.900111 -0.300602 -0.31534
0.0569595 -0.441197 -0.895601
ITEM: TIMESTEP
3030
ITEM: NUMBER OF ATOMS
54
ITEM: BOX BOUNDS pp pp pp
0.0000000000000000e+00 8.6303750400000006e+00
0.0000000000000000e+00 8.6303750400000006e+00
0.0000000000000000e+00 8.6303750400000006e+00
ITEM: ATOMS c_outsp[1] c_outsp[2] c_outsp[3]
0.768444 0.60556 -0.20686
0.976467 -0.196879 0.088043
-0.8829 -0.369659 0.289551
0.102552 0.196675 -0.975091
0.837951 0.449917 0.30889
0.833013 -0.12342 -0.539312
0.841937 0.427623 0.32906
0.443488 0.515494 -0.733201
-0.872405 -0.450287 0.190134
0.0281539 -0.625404 -0.779793
-0.593296 0.0263545 -0.804553
0.263754 0.347493 0.899824
0.467848 -0.851718 -0.235998
0.561505 -0.705589 -0.432269
0.7456 -0.26974 -0.609361
0.212678 -0.886046 -0.411934
-0.577805 -0.452198 -0.679454
0.217742 0.35006 0.911069
0.627744 -0.77499 -0.0729951
-0.257967 0.711756 0.653343
0.788774 -0.100354 -0.606436
-0.639168 0.597783 -0.483859
-0.10236 -0.877322 -0.468858
0.273173 -0.458646 -0.845588
-0.752511 0.607284 0.25482
0.615209 0.60927 -0.500308
-0.46935 0.236811 0.850665
0.174768 0.967585 0.182307
0.228427 -0.38446 -0.894434
-0.443972 0.489236 -0.750691
-0.153089 -0.790443 0.593096
0.929533 0.314869 -0.191902
0.101999 -0.569484 -0.81565
-0.797119 -0.00202511 0.603819
-0.620819 -0.708431 0.335722
-0.641033 0.622979 -0.448301
0.333187 -0.626455 -0.704656
-0.909005 -0.00623847 0.416738
0.352093 0.190011 0.916475
0.563627 -0.139301 -0.814199
0.0974598 0.643434 0.759272
0.71439 -0.204456 -0.669211
-0.79058 -0.599666 -0.12403
-0.324105 -0.775325 -0.542058
-0.613211 0.772085 0.166906
-0.763776 0.499996 -0.408228
-0.690939 -0.089864 -0.717306
0.260736 0.895632 0.360362
-0.571975 -0.136941 0.808759
-0.517549 -0.178482 -0.836832
0.458063 0.858898 -0.229069
0.446605 -0.84301 -0.299797
-0.906074 -0.272048 -0.324067
0.0240942 -0.44797 -0.893724
ITEM: TIMESTEP
3035
ITEM: NUMBER OF ATOMS
54
ITEM: BOX BOUNDS pp pp pp
0.0000000000000000e+00 8.6303750400000006e+00
0.0000000000000000e+00 8.6303750400000006e+00
0.0000000000000000e+00 8.6303750400000006e+00
ITEM: ATOMS c_outsp[1] c_outsp[2] c_outsp[3]
0.783963 0.598747 -0.164026
0.962108 -0.260321 0.0811287
-0.89568 -0.358343 0.26334
0.134901 0.233081 -0.963055
0.864329 0.400231 0.304549
0.830665 -0.150748 -0.535976
0.851917 0.418737 0.314479
0.478046 0.466371 -0.744292
-0.884966 -0.43621 0.162957
0.00463545 -0.608843 -0.793277
-0.600995 0.0357784 -0.798451
0.28121 0.354322 0.891839
0.441718 -0.875817 -0.194501
0.55853 -0.703051 -0.440187
0.767428 -0.308965 -0.561778
0.228655 -0.894364 -0.384487
-0.602477 -0.379163 -0.702323
0.225063 0.315558 0.92183
0.591739 -0.800708 -0.0933358
-0.212251 0.711234 0.670146
0.790218 -0.13174 -0.598498
-0.618152 0.609197 -0.496757
-0.177895 -0.869497 -0.460792
0.30583 -0.472598 -0.82651
-0.723456 0.642766 0.25192
0.604426 0.617268 -0.503635
-0.483862 0.237121 0.842408
0.246844 0.956631 0.154677
0.26787 -0.390268 -0.880873
-0.446004 0.520948 -0.727801
-0.148646 -0.80061 0.580456
0.945784 0.284616 -0.156481
0.073831 -0.559075 -0.825823
-0.827884 0.0487261 0.558779
-0.638604 -0.685765 0.349159
-0.640487 0.647267 -0.413306
0.276612 -0.635592 -0.720769
-0.920607 -0.0178109 0.390084
0.367126 0.207914 0.906637
0.549998 -0.144406 -0.822587
0.0886731 0.648865 0.755719
0.71367 -0.224925 -0.663388
-0.803484 -0.572363 -0.163753
-0.371857 -0.760882 -0.531772
-0.612703 0.771265 0.172469
-0.763565 0.507629 -0.399101
-0.678397 -0.058067 -0.732398
0.271073 0.903804 0.331146
-0.594166 -0.104561 0.797517
-0.541285 -0.175381 -0.822346
0.53895 0.809112 -0.234247
0.461129 -0.850674 -0.252415
-0.911389 -0.242574 -0.332457
-0.00811856 -0.453917 -0.891007
ITEM: TIMESTEP
3040
ITEM: NUMBER OF ATOMS
54
ITEM: BOX BOUNDS pp pp pp
0.0000000000000000e+00 8.6303750400000006e+00
0.0000000000000000e+00 8.6303750400000006e+00
0.0000000000000000e+00 8.6303750400000006e+00
ITEM: ATOMS c_outsp[1] c_outsp[2] c_outsp[3]
0.798299 0.590458 -0.118653
0.944418 -0.320891 0.0714395
-0.907799 -0.346569 0.236201
0.170264 0.26775 -0.948325
0.887596 0.350511 0.298857
0.826972 -0.177559 -0.53347
0.861679 0.40933 0.299929
0.507042 0.41369 -0.756154
-0.896001 -0.422964 0.135218
-0.0180554 -0.591366 -0.806201
-0.608102 0.0464025 -0.792502
0.299264 0.360697 0.883368
0.412834 -0.897688 -0.154027
0.556876 -0.699256 -0.448251
0.782892 -0.351032 -0.513669
0.243828 -0.901832 -0.356717
-0.619636 -0.303951 -0.723647
0.231707 0.280436 0.931487
0.555292 -0.823699 -0.114765
-0.165712 0.707796 0.686706
0.790551 -0.162813 -0.590356
-0.597233 0.619219 -0.509784
-0.253063 -0.855789 -0.451204
0.336996 -0.48535 -0.806764
-0.693385 0.675945 0.249631
0.593745 0.624756 -0.507097
-0.497454 0.23838 0.834095
0.318195 0.939556 0.126436
0.306538 -0.396984 -0.865123
-0.445421 0.55188 -0.705003
-0.143858 -0.811343 0.566593
0.960088 0.251925 -0.12151
0.0458183 -0.545741 -0.836701
-0.852891 0.100975 0.512232
-0.656851 -0.661062 0.362691
-0.637693 0.671203 -0.377935
0.218745 -0.641047 -0.735669
-0.931196 -0.0296681 0.363308
0.382285 0.226628 0.895823
0.535647 -0.150807 -0.830867
0.0799347 0.655989 0.750526
0.712191 -0.246264 -0.657371
-0.813568 -0.544962 -0.20279
-0.417919 -0.743663 -0.521833
-0.612341 0.770196 0.178426
-0.763308 0.514625 -0.390541
-0.664907 -0.0268147 -0.746444
0.281759 0.910674 0.302135
-0.614216 -0.0722091 0.785828
-0.56451 -0.171417 -0.807431
0.615498 0.751338 -0.238019
0.473645 -0.856474 -0.205214
-0.915991 -0.212139 -0.340526
-0.0394824 -0.459055 -0.88753
ITEM: TIMESTEP
3045
ITEM: NUMBER OF ATOMS
54
ITEM: BOX BOUNDS pp pp pp
0.0000000000000000e+00 8.6303750400000006e+00
0.0000000000000000e+00 8.6303750400000006e+00
0.0000000000000000e+00 8.6303750400000006e+00
ITEM: ATOMS c_outsp[1] c_outsp[2] c_outsp[3]
0.811166 0.580504 -0.0708846
0.923817 -0.378246 0.0590889
-0.919195 -0.33427 0.208193
0.208335 0.300326 -0.930806
0.90787 0.300931 0.291913
0.821975 -0.20375 -0.53183
0.871253 0.399313 0.285424
0.530071 0.358041 -0.768656
-0.905494 -0.41062 0.107113
-0.0398464 -0.57308 -0.81853
-0.614486 0.0582279 -0.786776
0.31791 0.366535 0.874406
0.381414 -0.917258 -0.114722
0.556596 -0.694246 -0.456315
0.791822 -0.395292 -0.465577
0.258169 -0.908474 -0.32867
-0.629042 -0.227433 -0.743358
0.237653 0.244714 0.940019
0.518597 -0.843944 -0.137167
-0.118578 0.701281 0.702953
0.789784 -0.193583 -0.582037
-0.576483 0.627808 -0.522996
-0.327254 -0.836241 -0.440006
0.366663 -0.496876 -0.786557
-0.662485 0.706839 0.247975
0.583122 0.631746 -0.510749
-0.510052 0.240586 0.825812
0.38825 0.916363 0.0976753
0.344274 -0.404491 -0.847268
-0.442341 0.581906 -0.682437
-0.138728 -0.822551 0.551511
0.972302 0.216908 -0.0870589
0.0182804 -0.529392 -0.84818
-0.872022 0.154333 0.464498
-0.675461 -0.634248 0.376141
-0.632629 0.69469 -0.342326
0.159869 -0.64273 -0.749226
-0.940756 -0.0417723 0.3365
0.397588 0.246084 0.883949
0.520584 -0.158384 -0.838992
0.0714079 0.664775 0.743623
0.709936 -0.268477 -0.651084
-0.821045 -0.51752 -0.240952
-0.462103 -0.723898 -0.512281
-0.612087 0.768902 0.184767
-0.763029 0.521041 -0.382495
-0.650489 0.00384971 -0.759506
0.292758 0.916265 0.273407
-0.632162 -0.0400236 0.773802
-0.587162 -0.166683 -0.792122
0.686785 0.686022 -0.240209
0.484296 -0.860429 -0.158488
-0.919804 -0.180709 -0.348289
-0.069809 -0.463418 -0.883386
ITEM: TIMESTEP
3050
ITEM: NUMBER OF ATOMS
54
ITEM: BOX BOUNDS pp pp pp
0.0000000000000000e+00 8.6303750400000006e+00
0.0000000000000000e+00 8.6303750400000006e+00
0.0000000000000000e+00 8.6303750400000006e+00
ITEM: ATOMS c_outsp[1] c_outsp[2] c_outsp[3]
0.822266 0.568719 -0.0208967
0.900743 -0.432095 0.0442216
-0.929806 -0.321381 0.179375
0.248766 0.330482 -0.910438
0.92527 0.25164 0.283817
0.815721 -0.229219 -0.531091
0.880663 0.388594 0.270974
0.546792 0.300061 -0.781653
-0.913451 -0.399241 0.0788319
-0.0606705 -0.554099 -0.830237
-0.620017 0.0712472 -0.781347
0.337129 0.371753 0.864953
0.347683 -0.934469 -0.0767146
0.557727 -0.688072 -0.464218
0.794165 -0.441088 -0.418024
0.271648 -0.914314 -0.300394
-0.630558 -0.150512 -0.761409
0.242879 0.208419 0.947403
0.481846 -0.861445 -0.160427
-0.0711009 0.691553 0.718818
0.787921 -0.224064 -0.573564
-0.555981 0.634915 -0.536441
-0.399858 -0.810967 -0.427137
0.394834 -0.507158 -0.766092
-0.630929 0.735484 0.246964
0.572516 0.63826 -0.514635
-0.521587 0.243727 0.817645
0.456435 0.887116 0.0685028
0.380938 -0.412667 -0.8274
-0.436887 0.610918 -0.660234
-0.133248 -0.834136 0.535222
0.982285 0.179684 -0.0531981
-0.00845243 -0.509976 -0.860147
-0.885209 0.208399 0.415902
-0.694317 -0.605266 0.389329
-0.625285 0.717636 -0.306621
0.100288 -0.640569 -0.761324
-0.949278 -0.0540839 0.309753
0.413044 0.266191 0.87094
0.504823 -0.167003 -0.846914
0.0632614 0.675167 0.734947
0.70688 -0.291558 -0.644449
-0.826136 -0.490077 -0.278072
-0.504254 -0.701827 -0.503157
-0.611901 0.767407 0.191478
-0.762744 0.526943 -0.374903
-0.635154 0.0338835 -0.771642
0.304036 0.920608 0.245037
-0.648059 -0.00813051 0.761547
-0.609187 -0.161281 -0.776453
0.751939 0.613741 -0.240646
0.493243 -0.862584 -0.112515
-0.922744 -0.148261 -0.355757
-0.0989212 -0.467056 -0.878677
ITEM: TIMESTEP
3055
ITEM: NUMBER OF ATOMS
54
ITEM: BOX BOUNDS pp pp pp
0.0000000000000000e+00 8.6303750400000006e+00
0.0000000000000000e+00 8.6303750400000006e+00
0.0000000000000000e+00 8.6303750400000006e+00
ITEM: ATOMS c_outsp[1] c_outsp[2] c_outsp[3]
0.831292 0.554966 0.0310993
0.875642 -0.482204 0.0270115
-0.939569 -0.307842 0.149811
0.291183 0.357926 -0.887187
0.939917 0.202767 0.274665
0.808266 -0.253871 -0.531278
0.889927 0.377082 0.256592
0.556944 0.240434 -0.794987
-0.9199 -0.38888 0.0505641
-0.0804678 -0.534546 -0.8413
-0.624565 0.085444 -0.776284
0.356896 0.376266 0.855014
0.311874 -0.949276 -0.0401156
0.56029 -0.680799 -0.471792
0.789977 -0.48777 -0.371506
0.284236 -0.919381 -0.271936
-0.624154 -0.0741182 -0.777778
0.247362 0.171579 0.95361
0.445221 -0.876221 -0.184432
-0.0235497 0.678498 0.734225
0.784964 -0.254273 -0.564958
-0.53581 0.64049 -0.550164
-0.470279 -0.780147 -0.412563
0.42152 -0.51619 -0.745566
-0.598879 0.761929 0.246592
0.561883 0.644325 -0.51878
-0.532 0.247792 0.809676
0.522184 0.851939 0.0390387
0.416409 -0.421392 -0.805625
-0.429189 0.638828 -0.63851
-0.127404 -0.845993 0.517748
0.989896 0.140377 -0.0200014
-0.0340438 -0.487478 -0.872472
-0.892432 0.262768 0.366768
-0.713289 -0.574073 0.402068
-0.615664 0.739959 -0.270959
0.0403194 -0.634513 -0.77186
-0.95676 -0.0665609 0.283162
0.42865 0.286847 0.856725
0.488384 -0.176518 -0.854589
0.0556669 0.687087 0.724439
0.702991 -0.3155 -0.637388
-0.829069 -0.46265 -0.314005
-0.544242 -0.677694 -0.494501
-0.611742 0.765736 0.198546
-0.762462 0.532398 -0.367702
-0.618912 0.0632435 -0.78291
0.315558 0.923737 0.2171
-0.661973 0.0233588 0.749164
-0.630541 -0.155317 -0.760457
0.810162 0.535199 -0.239166
0.500662 -0.863002 -0.0675593
-0.924716 -0.114783 -0.36294
-0.126656 -0.470034 -0.873514
ITEM: TIMESTEP
3060
ITEM: NUMBER OF ATOMS
54
ITEM: BOX BOUNDS pp pp pp
0.0000000000000000e+00 8.6303750400000006e+00
0.0000000000000000e+00 8.6303750400000006e+00
0.0000000000000000e+00 8.6303750400000006e+00
ITEM: ATOMS c_outsp[1] c_outsp[2] c_outsp[3]
0.837933 0.539135 0.0848592
0.848963 -0.528396 0.00765962
-0.948423 -0.293596 0.119567
0.335185 0.382403 -0.861057
0.951928 0.154415 0.264553
0.799672 -0.27761 -0.532408
0.899053 0.364687 0.242294
0.560347 0.179874 -0.80849
-0.924887 -0.379577 0.0224902
-0.0991867 -0.51455 -0.851704
-0.628002 0.100791 -0.771657
0.37718 0.379989 0.844597
0.274227 -0.961652 -0.00501932
0.564288 -0.672508 -0.478865
0.779421 -0.53471 -0.326479
0.295903 -0.923703 -0.243341
-0.609914 0.000813022 -0.792467
0.251078 0.134231 0.958614
0.408897 -0.888309 -0.209071
0.0237888 0.662035 0.749096
0.78091 -0.284227 -0.556232
-0.51606 0.644482 -0.564203
-0.537939 -0.744031 -0.396282
0.446744 -0.523974 -0.725169
-0.566482 0.786235 0.246845
0.551178 0.649974 -0.523198
-0.541234 0.252765 0.801982
0.584943 0.81102 0.00941507
0.450581 -0.430544 -0.782054
-0.419377 0.665566 -0.617369
-0.121173 -0.858017 0.499124
0.994998 0.0991192 0.0124532
-0.0581564 -0.461921 -0.885013
-0.893723 0.317031 0.317413
-0.73223 -0.540649 0.414171
-0.603777 0.76158 -0.235478
-0.0197023 -0.624537 -0.780747
-0.963212 -0.0791591 0.25682
0.44439 0.307938 0.841244
0.471291 -0.186777 -0.861974
0.0487961 0.700434 0.712047
0.69823 -0.340285 -0.629826
-0.830072 -0.435244 -0.34863
-0.581972 -0.651746 -0.486349
-0.611572 0.763913 0.205953
-0.762182 0.537479 -0.360825
-0.601772 0.0918849 -0.793365
0.327293 0.925692 0.189665
-0.673979 0.0543486 0.736749
-0.651188 -0.148901 -0.744166
0.86075 0.451213 -0.235618
0.506738 -0.86177 -0.023864
-0.925619 -0.080279 -0.369845
-0.152869 -0.472429 -0.86801
ITEM: TIMESTEP
3065
ITEM: NUMBER OF ATOMS
54
ITEM: BOX BOUNDS pp pp pp
0.0000000000000000e+00 8.6303750400000006e+00
0.0000000000000000e+00 8.6303750400000006e+00
0.0000000000000000e+00 8.6303750400000006e+00
ITEM: ATOMS c_outsp[1] c_outsp[2] c_outsp[3]
0.841887 0.521149 0.140106
0.821149 -0.570552 -0.0136096
-0.956304 -0.27859 0.0887112
0.380357 0.403698 -0.83208
0.961416 0.106673 0.253573
0.790006 -0.30035 -0.534491
0.908046 0.351321 0.228093
0.556914 0.119117 -0.821984
-0.928476 -0.371356 -0.00521759
-0.116786 -0.494248 -0.861441
-0.630197 0.11725 -0.767531
0.397937 0.382838 0.833715
0.234985 -0.971581 0.0284985
0.569708 -0.66329 -0.485262
0.762746 -0.581314 -0.283359
0.306622 -0.927311 -0.214658
-0.588041 0.0733579 -0.805498
0.254006 0.0964188 0.962385
0.373041 -0.897759 -0.23424
0.0706173 0.642113 0.76335
0.775752 -0.313946 -0.5474
-0.496827 0.646837 -0.578588
-0.602296 -0.702929 -0.378326
0.470535 -0.530523 -0.705083
-0.53387 0.808473 0.247698
0.540362 0.655245 -0.527885
-0.54924 0.258627 0.794636
0.644183 0.764604 -0.0202265
0.483367 -0.440003 -0.756805
-0.407583 0.691075 -0.596902
-0.114525 -0.870095 0.479394
0.997454 0.0560473 0.0440824
-0.0804581 -0.433371 -0.897617
-0.889165 0.370785 0.26815
-0.750983 -0.504991 0.42545
-0.589644 0.782429 -0.200313
-0.0794339 -0.610641 -0.787914
-0.968653 -0.0918314 0.230822
0.460241 0.329336 0.824449
0.453576 -0.197617 -0.869032
0.042818 0.715082 0.697728
0.692554 -0.365888 -0.621687
-0.829372 -0.407846 -0.381843
-0.617373 -0.624228 -0.478737
-0.611352 0.761963 0.213683
-0.761898 0.542264 -0.354204
-0.58374 0.119761 -0.80306
0.339212 0.926515 0.162801
-0.684163 0.0847585 0.724388
-0.671103 -0.142146 -0.72761
0.903109 0.362702 -0.229874
0.511665 -0.858989 0.0183494
-0.925345 -0.0447661 -0.376473
-0.177432 -0.474329 -0.862282
ITEM: TIMESTEP
3070
ITEM: NUMBER OF ATOMS
54
ITEM: BOX BOUNDS pp pp pp
0.0000000000000000e+00 8.6303750400000006e+00
0.0000000000000000e+00 8.6303750400000006e+00
0.0000000000000000e+00 8.6303750400000006e+00
ITEM: ATOMS c_outsp[1] c_outsp[2] c_outsp[3]
0.842859 0.500963 0.196531
0.79263 -0.608606 -0.0365513
-0.963153 -0.262778 0.0573139
0.426275 0.421639 -0.800319
0.968489 0.0596104 0.241819
0.77934 -0.322009 -0.537532
0.916897 0.336898 0.214008
0.546646 0.0589104 -0.835289
-0.930745 -0.364231 -0.032399
-0.133234 -0.473778 -0.870507
-0.631026 0.134771 -0.763966
0.419121 0.384732 0.822386
0.194391 -0.979064 0.0603802
0.576517 -0.653252 -0.490805
0.740286 -0.627028 -0.242513
0.316361 -0.930239 -0.185932
-0.558853 0.142622 -0.81691
0.256123 0.0581918 0.964891
0.337812 -0.904637 -0.259835
0.116632 0.61872 0.776905
0.769479 -0.343443 -0.538468
-0.478214 0.647504 -0.593338
-0.662851 -0.657206 -0.35876
0.49293 -0.535855 -0.685478
-0.501161 0.828721 0.249118
0.529395 0.660181 -0.532824
-0.555976 0.265357 0.787703
0.699402 0.712996 -0.0497377
0.514698 -0.449656 -0.729997
-0.393937 0.71531 -0.577187
-0.107422 -0.882118 0.458616
0.997135 0.0113081 0.0747969
-0.100628 -0.401936 -0.910122
-0.878891 0.423636 0.219279
-0.76938 -0.467119 0.435723
-0.573293 0.802443 -0.165593
-0.138525 -0.592854 -0.793306
-0.97311 -0.104528 0.205258
0.476164 0.350907 0.806307
0.435278 -0.208874 -0.875731
0.0378958 0.730881 0.681452
0.685912 -0.392276 -0.612898
-0.827186 -0.380433 -0.413563
-0.650402 -0.595381 -0.471698
-0.611046 0.759912 0.221714
-0.761595 0.546836 -0.347769
-0.564825 0.146824 -0.812044
0.351288 0.926253 0.136572
-0.692614 0.114523 0.712158
-0.690269 -0.135166 -0.710815
0.936769 0.27066 -0.221827
0.515637 -0.854781 0.058882
-0.923783 -0.00827868 -0.382826
-0.200238 -0.47583 -0.856441
ITEM: TIMESTEP
3075
ITEM: NUMBER OF ATOMS
54
ITEM: BOX BOUNDS pp pp pp
0.0000000000000000e+00 8.6303750400000006e+00
0.0000000000000000e+00 8.6303750400000006e+00
0.0000000000000000e+00 8.6303750400000006e+00
ITEM: ATOMS c_outsp[1] c_outsp[2] c_outsp[3]
0.840573 0.478564 0.253797
0.76382 -0.64255 -0.0609044
-0.968906 -0.246119 0.0254459
0.472514 0.436096 -0.765866
0.973246 0.0132822 0.22938
0.767748 -0.342512 -0.541524
0.925592 0.321336 0.200055
0.529642 -4.8861e-07 -0.848221
-0.931787 -0.358195 -0.058907
-0.148513 -0.453283 -0.878907
-0.630362 0.153288 -0.761017
0.440675 0.385593 0.810632
0.152693 -0.984113 0.0905862
0.584664 -0.642513 -0.495323
0.712438 -0.671351 -0.204254
0.325094 -0.932523 -0.157212
-0.522782 0.207761 -0.826761
0.257411 0.0196085 0.966103
0.303359 -0.909018 -0.28576
0.161527 0.591879 0.789676
0.762076 -0.372733 -0.529444
-0.460328 0.64643 -0.608462
-0.719155 -0.607278 -0.337682
0.513973 -0.539993 -0.666513
-0.46846 0.847062 0.251061
0.518245 0.664828 -0.537983
-0.561403 0.272932 0.78124
0.750134 0.656554 -0.0789664
0.544519 -0.459392 -0.701753
-0.378569 0.73824 -0.558289
-0.0998238 -0.893972 0.436862
0.993911 -0.0349429 0.1045
-0.11836 -0.367764 -0.922356
-0.863083 0.475201 0.171088
-0.787244 -0.427073 0.44481
-0.554759 0.821563 -0.131443
-0.196623 -0.571236 -0.796887
-0.976621 -0.117196 0.180213
0.492116 0.37251 0.786802
0.416444 -0.220381 -0.882047
0.0341835 0.747661 0.6632
0.678248 -0.419403 -0.603391
-0.823723 -0.352971 -0.443725
-0.681039 -0.565435 -0.465262
-0.610619 0.757781 0.230025
-0.761252 0.551279 -0.341448
-0.545036 0.173022 -0.820365
0.363495 0.924955 0.111041
-0.699428 0.143593 0.700129
-0.708682 -0.128075 -0.693806
0.961397 0.17614 -0.2114
0.518848 -0.849282 0.097559
-0.92082 0.0291318 -0.388898
-0.221202 -0.477033 -0.850593
ITEM: TIMESTEP
3080
ITEM: NUMBER OF ATOMS
54
ITEM: BOX BOUNDS pp pp pp
0.0000000000000000e+00 8.6303750400000006e+00
0.0000000000000000e+00 8.6303750400000006e+00
0.0000000000000000e+00 8.6303750400000006e+00
ITEM: ATOMS c_outsp[1] c_outsp[2] c_outsp[3]
0.834775 0.453973 0.311544
0.735106 -0.672425 -0.0863952
-0.973502 -0.228578 -0.00682122
0.518652 0.44698 -0.728841
0.975783 -0.0322688 0.216346
0.755308 -0.361793 -0.546457
0.934105 0.304561 0.186255
0.506096 -0.0568847 -0.860599
-0.931702 -0.353231 -0.0846097
-0.162616 -0.432906 -0.88665
-0.628084 0.172724 -0.758733
0.462536 0.385349 0.798478
0.110132 -0.986756 0.119095
0.59408 -0.631203 -0.498649
0.679654 -0.713836 -0.168845
0.332789 -0.934199 -0.128545
-0.480365 0.267995 -0.835121
0.257854 -0.0192647 0.965992
0.269825 -0.910988 -0.311923
0.205 0.561652 0.801575
0.753522 -0.401823 -0.520329
-0.443285 0.643567 -0.623955
-0.770817 -0.5536 -0.315226
0.533711 -0.542968 -0.648335
-0.435857 0.863583 0.253481
0.506883 0.669233 -0.54332
-0.565485 0.281327 0.775294
0.795957 0.595685 -0.107759
0.572791 -0.469109 -0.672196
-0.361602 0.759843 -0.540262
-0.0916845 -0.905549 0.414216
0.987661 -0.0825399 0.133087
-0.133375 -0.331041 -0.934143
-0.841969 0.525119 0.123846
-0.804393 -0.384917 0.452538