ITEM: TIMESTEP
9500
ITEM: NUMBER OF ATOMS
54
ITEM: BOX BOUNDS pp pp pp
0.0000000000000000e+00 8.6303750400000006e+00
0.0000000000000000e+00 8.6303750400000006e+00
0.0000000000000000e+00 8.6303750400000006e+00
ITEM: ATOMS c_outsp[1] c_outsp[2] c_outsp[3]
-0.557295 0.184569 0.809541
0.82555 0.409298 0.388512
-0.970588 -0.206058 0.124497
-0.124796 -0.968377 -0.216039
0.928017 0.287255 -0.23721
-0.745579 -0.5552 -0.368598
0.241523 0.0238334 0.970102
-0.355632 -0.932021 0.0697325
-0.404576 -0.905646 0.126976
0.547375 0.800089 0.245435
-0.518696 -0.298597 0.801121
-0.590903 0.695262 -0.4092
0.267082 0.455819 -0.849056
-0.335459 -0.899458 -0.280075
0.96879 0.0888059 0.231431
0.524945 -0.41021 -0.745761
0.919877 0.289551 -0.264548
0.30583 0.871007 -0.384466
-0.124719 0.629759 -0.766713
0.402535 0.0987946 -0.910058
0.791045 -0.607609 0.0711311
-0.280471 -0.947133 0.155803
0.367471 0.726235 -0.580988
0.709434 0.585968 -0.391592
0.933618 0.0580509 0.353536
0.136469 0.964543 -0.225903
-0.816329 -0.36074 -0.451081
-0.2393 0.0207474 -0.970724
0.0440465 0.358909 0.932333
0.734481 -0.546392 0.402484
-0.559955 -0.474683 0.679063
0.718442 -0.577652 -0.387505
-0.595117 0.0379219 -0.802744
-0.0146207 0.972915 -0.230701
0.226942 -0.840282 -0.492365
-0.704932 0.698679 -0.122143
0.567106 -0.784996 0.249341
0.385557 -0.607741 -0.69426
-0.0516983 0.55165 -0.832472
0.0308315 0.83103 0.555372
-0.958311 -0.15296 -0.241337
-0.654197 -0.714787 -0.247197
-0.361636 0.175269 -0.915697
0.106049 -0.982854 -0.150834
-0.348948 0.642885 0.68186
0.204442 0.831147 0.517105
0.21961 -0.945391 -0.240847
-0.388294 0.0401978 -0.920658
-0.551815 -0.231645 -0.80115
-0.260199 0.811412 -0.523362
0.106743 -0.332679 -0.936979
-0.906172 0.404661 -0.122889
0.798029 -0.29588 -0.52498
-0.191568 -0.947383 -0.25645
ITEM: TIMESTEP
9505
ITEM: NUMBER OF ATOMS
54
ITEM: BOX BOUNDS pp pp pp
0.0000000000000000e+00 8.6303750400000006e+00
0.0000000000000000e+00 8.6303750400000006e+00
0.0000000000000000e+00 8.6303750400000006e+00
ITEM: ATOMS c_outsp[1] c_outsp[2] c_outsp[3]
-0.571804 0.167872 0.803031
0.809665 0.40794 0.421933
-0.968066 -0.218425 0.123041
-0.154247 -0.954806 -0.254074
0.924983 0.300476 -0.232637
-0.750593 -0.55181 -0.363477
0.265908 0.0686183 0.961553
-0.3663 -0.928696 0.0578668
-0.395939 -0.908992 0.130255
0.555458 0.792877 0.250623
-0.511122 -0.289776 0.809187
-0.583909 0.696473 -0.417104
0.255179 0.453789 -0.853791
-0.38241 -0.877232 -0.290218
0.964552 0.035784 0.261456
0.543788 -0.441332 -0.713807
0.930197 0.291647 -0.222879
0.382411 0.83818 -0.388865
-0.119073 0.629764 -0.767606
0.463742 0.0749913 -0.882791
0.75394 -0.655652 0.0411638
-0.322465 -0.931785 0.166712
0.417181 0.701439 -0.577878
0.736955 0.569125 -0.364683
0.91547 0.040382 0.400354
0.178825 0.965589 -0.18884
-0.826181 -0.336801 -0.451653
-0.272798 0.0501713 -0.960762
0.0495427 0.381897 0.922876
0.747599 -0.555199 0.364486
-0.545912 -0.485643 0.682737
0.726517 -0.563764 -0.392866
-0.559227 0.0680989 -0.826213
0.0150392 0.972985 -0.230378
0.217734 -0.854341 -0.471904
-0.700283 0.702845 -0.124951
0.532262 -0.800545 0.275364
0.390052 -0.608979 -0.690655
-0.0652597 0.522606 -0.850073
0.0330686 0.82891 0.558404
-0.951157 -0.134275 -0.277976
-0.69235 -0.668782 -0.270891
-0.364814 0.187016 -0.912105
0.0936944 -0.972727 -0.21219
-0.333896 0.658172 0.674776
0.193009 0.832691 0.519012
0.15852 -0.951422 -0.263945
-0.380966 0.05197 -0.923127
-0.542193 -0.21363 -0.812643
-0.21895 0.828465 -0.515468
0.106023 -0.353564 -0.929382
-0.875828 0.463481 -0.13458
0.747951 -0.367262 -0.552891
-0.253484 -0.938925 -0.232735
ITEM: TIMESTEP
9510
ITEM: NUMBER OF ATOMS
54
ITEM: BOX BOUNDS pp pp pp
0.0000000000000000e+00 8.6303750400000006e+00
0.0000000000000000e+00 8.6303750400000006e+00
0.0000000000000000e+00 8.6303750400000006e+00
ITEM: ATOMS c_outsp[1] c_outsp[2] c_outsp[3]
-0.586031 0.149857 0.79631
0.793274 0.404776 0.454833
-0.965354 -0.230223 0.122835
-0.182154 -0.938674 -0.292765
0.922421 0.312277 -0.227207
-0.756883 -0.546558 -0.358333
0.288496 0.113317 0.950752
-0.376027 -0.925543 0.0444299
-0.385929 -0.912749 0.133974
0.563436 0.785667 0.255475
-0.502639 -0.281481 0.817388
-0.577376 0.697295 -0.424755
0.242929 0.452882 -0.857836
-0.426049 -0.853018 -0.301402
0.957176 -0.0189332 0.288887
0.561891 -0.471357 -0.67978
0.939495 0.29096 -0.180809
0.456593 0.799476 -0.390335
-0.111664 0.629635 -0.768824
0.522446 0.0480675 -0.851317
0.714282 -0.699792 0.00962299
-0.363006 -0.914812 0.177047
0.464878 0.67271 -0.57563
0.763968 0.549969 -0.337471
0.894852 0.0255598 0.44563
0.218966 0.963989 -0.150926
-0.835011 -0.313673 -0.452068
-0.303732 0.0799408 -0.949398
0.0546071 0.404092 0.913087
0.760837 -0.561373 0.325557
-0.531429 -0.497273 0.685786
0.734164 -0.549278 -0.399119
-0.521082 0.0967651 -0.848004
0.0458072 0.971737 -0.231579
0.206805 -0.86746 -0.452487
-0.695473 0.707071 -0.127936
0.496495 -0.814299 0.300683
0.39505 -0.610375 -0.68657
-0.0818191 0.494332 -0.865414
0.0363514 0.826759 0.561381
-0.942145 -0.116946 -0.314144
-0.725922 -0.620734 -0.296188
-0.367612 0.199502 -0.908328
0.0816609 -0.959099 -0.271036
-0.318001 0.672693 0.668101
0.184349 0.83453 0.519206
0.096822 -0.952734 -0.287964
-0.372685 0.0625942 -0.925844
-0.532204 -0.196415 -0.823517
-0.174297 0.842701 -0.509387
0.102976 -0.375343 -0.921148
-0.841545 0.519685 -0.147408
0.690484 -0.435274 -0.577727
-0.315406 -0.925535 -0.209534
ITEM: TIMESTEP
9515
ITEM: NUMBER OF ATOMS
54
ITEM: BOX BOUNDS pp pp pp
0.0000000000000000e+00 8.6303750400000006e+00
0.0000000000000000e+00 8.6303750400000006e+00
0.0000000000000000e+00 8.6303750400000006e+00
ITEM: ATOMS c_outsp[1] c_outsp[2] c_outsp[3]
-0.602197 0.129624 0.787754
0.775807 0.40219 0.486175
-0.961819 -0.244329 0.123318
-0.207811 -0.920661 -0.33045
0.92168 0.321832 -0.216632
-0.763062 -0.538552 -0.35735
0.307185 0.15551 0.938858
-0.385853 -0.922104 0.0290116
-0.374269 -0.917033 0.137742
0.573178 0.777412 0.259031
-0.494079 -0.272295 0.825676
-0.571066 0.697344 -0.433122
0.232912 0.453442 -0.860315
-0.466151 -0.826652 -0.315199
0.946447 -0.0756615 0.313868
0.577007 -0.499588 -0.646123
0.947558 0.286105 -0.142402
0.531274 0.754539 -0.385252
-0.102224 0.628815 -0.770806
0.575947 0.0186734 -0.817274
0.671543 -0.740475 -0.0269495
-0.404593 -0.895092 0.187388
0.511266 0.637824 -0.576011
0.791109 0.526774 -0.310895
0.873103 0.0163098 0.487263
0.259504 0.959349 -0.110941
-0.844461 -0.288052 -0.451565
-0.333516 0.109011 -0.936421
0.0585991 0.421276 0.905037
0.775869 -0.562382 0.285926
-0.517703 -0.509355 0.687416
0.74215 -0.532108 -0.407522
-0.481678 0.123017 -0.867671
0.0793143 0.96914 -0.233405
0.195615 -0.88035 -0.432109
-0.689272 0.712559 -0.131008
0.460389 -0.825735 0.325889
0.399848 -0.610877 -0.683338
-0.100886 0.467022 -0.878472
0.0423832 0.824348 0.564494
-0.931586 -0.101187 -0.349154
-0.755847 -0.569881 -0.322382
-0.3683 0.215762 -0.904324
0.0674334 -0.942881 -0.326234
-0.30285 0.684423 0.66321
0.17886 0.83503 0.520322
0.0339336 -0.949612 -0.311587
-0.361965 0.0720417 -0.929404
-0.522307 -0.177816 -0.834013
-0.123804 0.85412 -0.505126
0.0947208 -0.396517 -0.913128
-0.802934 0.574491 -0.158927
0.624002 -0.50196 -0.598881
-0.378371 -0.906939 -0.185196
ITEM: TIMESTEP
9520
ITEM: NUMBER OF ATOMS
54
ITEM: BOX BOUNDS pp pp pp
0.0000000000000000e+00 8.6303750400000006e+00
0.0000000000000000e+00 8.6303750400000006e+00
0.0000000000000000e+00 8.6303750400000006e+00
ITEM: ATOMS c_outsp[1] c_outsp[2] c_outsp[3]
-0.618465 0.107912 0.778368
0.757843 0.398385 0.516684
-0.957898 -0.258655 0.124617
-0.231378 -0.900504 -0.36818
0.921839 0.329488 -0.204083
-0.769726 -0.528664 -0.357822
0.323594 0.196537 0.925559
-0.39496 -0.91862 0.0120072
-0.361244 -0.921585 0.142069
0.583305 0.768751 0.262256
-0.485015 -0.263287 0.833931
-0.565116 0.697091 -0.441257
0.223481 0.455136 -0.861921
-0.502809 -0.798622 -0.330737
0.932202 -0.133505 0.336416
0.590836 -0.526419 -0.611388
0.954667 0.278404 -0.10537
0.602908 0.703629 -0.376043
-0.0910312 0.627345 -0.773402
0.625511 -0.0136063 -0.780096
0.626607 -0.776532 -0.0660452
-0.445367 -0.873316 0.1974
0.555143 0.598618 -0.577471
0.817448 0.500972 -0.284265
0.850164 0.0104854 0.526413
0.298338 0.951902 -0.0698319
-0.853213 -0.262343 -0.450782
-0.360901 0.137987 -0.92234
0.0619321 0.436609 0.897517
0.791171 -0.560049 0.245749
-0.504028 -0.522031 0.688069
0.749725 -0.513723 -0.417134
-0.440676 0.147284 -0.885501
0.113973 0.964919 -0.236521
0.183178 -0.892416 -0.412358
-0.682533 0.718432 -0.13418
0.423842 -0.835193 0.350444
0.404766 -0.611133 -0.680206
-0.122527 0.441045 -0.889082
0.0498674 0.821865 0.567495
-0.919593 -0.0870275 -0.383111
-0.780947 -0.517546 -0.349669
-0.36767 0.233349 -0.900204
0.0531561 -0.924059 -0.378535
-0.287274 0.694998 0.659129
0.176054 0.835404 0.520677
-0.0291149 -0.941629 -0.33539
-0.350266 0.0802124 -0.933209
-0.512067 -0.159469 -0.844012
-0.0698419 0.861489 -0.50295
0.0833933 -0.417538 -0.904825
-0.76057 0.626305 -0.171101
0.549974 -0.564089 -0.615899
-0.440657 -0.883104 -0.161089
ITEM: TIMESTEP
9525
ITEM: NUMBER OF ATOMS
54
ITEM: BOX BOUNDS pp pp pp
0.0000000000000000e+00 8.6303750400000006e+00
0.0000000000000000e+00 8.6303750400000006e+00
0.0000000000000000e+00 8.6303750400000006e+00
ITEM: ATOMS c_outsp[1] c_outsp[2] c_outsp[3]
-0.634167 0.0849249 0.768518
0.739621 0.392778 0.546522
-0.95379 -0.27242 0.126778
-0.252727 -0.87815 -0.406179
0.922566 0.335403 -0.190725
-0.777027 -0.517131 -0.358894
0.338223 0.236769 0.910794
-0.403046 -0.915158 -0.00639103
-0.34697 -0.926256 0.147178
0.593346 0.759906 0.265486
-0.475329 -0.254855 0.842087
-0.559533 0.69675 -0.448847
0.214172 0.457827 -0.862858
-0.535966 -0.769305 -0.347721
0.914377 -0.191928 0.35648
0.603906 -0.55186 -0.575107
0.960848 0.268343 -0.0690206
0.669949 0.647215 -0.363706
-0.0782561 0.625135 -0.776584
0.671235 -0.0488188 -0.739636
0.58019 -0.80746 -0.106714
-0.484692 -0.849853 0.206939
0.595993 0.555966 -0.579391
0.842598 0.473068 -0.257363
0.826107 0.00724684 0.563467
0.334626 0.941932 -0.0281005
-0.860931 -0.237424 -0.449919
-0.385539 0.166813 -0.907487
0.0647675 0.45112 0.89011
0.806125 -0.555046 0.20515
-0.490148 -0.535359 0.687856
0.75667 -0.494607 -0.427569
-0.398063 0.169558 -0.901552
0.149147 0.958944 -0.241207
0.169335 -0.903424 -0.393891
-0.67555 0.724385 -0.137472
0.386879 -0.842805 0.374172
0.409879 -0.611385 -0.67691
-0.146587 0.416754 -0.897122
0.0584167 0.819344 0.570318
-0.906305 -0.0744954 -0.416006
-0.800856 -0.464496 -0.377985
-0.366 0.251459 -0.895998
0.0395261 -0.902837 -0.428163
-0.27084 0.704921 0.655539
0.175927 0.835958 0.51983
-0.0916729 -0.928638 -0.359482
-0.338213 0.0870963 -0.937031
-0.501426 -0.14188 -0.853488
-0.0135557 0.864241 -0.502896
0.069639 -0.438475 -0.896042
-0.714912 0.674391 -0.184655
0.46946 -0.620118 -0.628539
-0.501392 -0.854179 -0.137782
ITEM: TIMESTEP
9530
ITEM: NUMBER OF ATOMS
54
ITEM: BOX BOUNDS pp pp pp
0.0000000000000000e+00 8.6303750400000006e+00
0.0000000000000000e+00 8.6303750400000006e+00
0.0000000000000000e+00 8.6303750400000006e+00
ITEM: ATOMS c_outsp[1] c_outsp[2] c_outsp[3]
-0.649205 0.0606457 0.758192
0.721212 0.385389 0.575611
-0.949539 -0.285564 0.129729
-0.271616 -0.85372 -0.444282
0.923849 0.339556 -0.17665
-0.784813 -0.503957 -0.360687
0.351055 0.276056 0.894737
-0.410074 -0.911679 -0.0260969
-0.331491 -0.930945 0.153154
0.60329 0.750861 0.268791
-0.465098 -0.247034 0.850093
-0.554265 0.696406 -0.45586
0.205123 0.46147 -0.863117
-0.565541 -0.738968 -0.366183
0.892915 -0.250571 0.374054
0.616182 -0.575792 -0.537386
0.966079 0.256056 -0.0335629
0.731803 0.585733 -0.348399
-0.064012 0.622007 -0.780391
0.71266 -0.0868188 -0.696116
0.532835 -0.83303 -0.148822
-0.522555 -0.824793 0.215994
0.633603 0.510161 -0.581621
0.866391 0.443135 -0.230215
0.801192 0.00641873 0.598373
0.368233 0.929627 0.0140671
-0.867698 -0.213343 -0.448982
-0.407506 0.195229 -0.89209
0.0671161 0.464785 0.882876
0.820575 -0.547423 0.16427
-0.476086 -0.54934 0.686708
0.762977 -0.474732 -0.438743
-0.354043 0.189653 -0.915798
0.184633 0.951132 -0.247504
0.154272 -0.913348 -0.376824
-0.668326 0.730407 -0.14088
0.349632 -0.848588 0.39706
0.415115 -0.61162 -0.673499
-0.172792 0.394458 -0.902522
0.0680634 0.816761 0.572948
-0.891907 -0.0636265 -0.44772
-0.815566 -0.411201 -0.407144
-0.3632 0.270042 -0.891719
0.0265609 -0.879523 -0.475115
-0.253515 0.714171 0.652449
0.178557 0.836566 0.517953
-0.15332 -0.910645 -0.383692
-0.326014 0.0927196 -0.940807
-0.490428 -0.125018 -0.862468
0.0445351 0.862007 -0.504936
0.0534257 -0.459097 -0.886778
-0.666319 0.718435 -0.199676
0.383184 -0.669279 -0.636581
-0.560108 -0.820342 -0.115402
ITEM: TIMESTEP
9535
ITEM: NUMBER OF ATOMS
54
ITEM: BOX BOUNDS pp pp pp
0.0000000000000000e+00 8.6303750400000006e+00
0.0000000000000000e+00 8.6303750400000006e+00
0.0000000000000000e+00 8.6303750400000006e+00
ITEM: ATOMS c_outsp[1] c_outsp[2] c_outsp[3]
-0.663477 0.0350628 0.747375
0.702684 0.376252 0.603879
-0.94519 -0.298031 0.133389
-0.287812 -0.827366 -0.482316
0.925666 0.34193 -0.161943
-0.792923 -0.489156 -0.363318
0.362083 0.314263 0.877573
-0.416007 -0.908145 -0.0470151
-0.314856 -0.935544 0.160071
0.613123 0.741597 0.272238
-0.454402 -0.239856 0.857897
-0.549259 0.696142 -0.462278
0.196465 0.466006 -0.862694
-0.591466 -0.707865 -0.386128
0.867779 -0.309079 0.38914
0.627628 -0.598114 -0.49834
0.970353 0.24169 0.000810124
0.787932 0.519671 -0.330309
-0.0484317 0.617788 -0.784852
0.749348 -0.127423 -0.649801
0.48511 -0.85307 -0.1922
-0.558947 -0.798217 0.224559
0.667789 0.461504 -0.584014
0.888662 0.411258 -0.202847
0.77566 0.00780591 0.631102
0.399047 0.915189 0.0564821
-0.873594 -0.190142 -0.447972
-0.426912 0.222993 -0.876368
0.0689906 0.477577 0.875877
0.834378 -0.537236 0.123254
-0.461866 -0.563969 0.684557
0.768643 -0.454075 -0.45056
-0.308835 0.207389 -0.92823
0.220211 0.941411 -0.255444
0.138182 -0.922172 -0.361253
-0.660865 0.736484 -0.144394
0.312228 -0.852563 0.419106
0.420405 -0.611821 -0.670026
-0.200834 0.374443 -0.905239
0.0788352 0.814086 0.575368
-0.876592 -0.0544401 -0.478145
-0.825113 -0.358128 -0.43696
-0.359184 0.289037 -0.887381
0.014266 -0.854407 -0.519409
-0.235271 0.722723 0.649861
0.183994 0.837079 0.515214
-0.213639 -0.887706 -0.407844
-0.31388 0.0971336 -0.944481
-0.479105 -0.108857 -0.870982
0.103864 0.854468 -0.509016
0.0347478 -0.479171 -0.877033
-0.615187 0.758146 -0.216241
0.29197 -0.710862 -0.639866
-0.616364 -0.781823 -0.0940676
ITEM: TIMESTEP
9540
ITEM: NUMBER OF ATOMS
54
ITEM: BOX BOUNDS pp pp pp
0.0000000000000000e+00 8.6303750400000006e+00
0.0000000000000000e+00 8.6303750400000006e+00
0.0000000000000000e+00 8.6303750400000006e+00
ITEM: ATOMS c_outsp[1] c_outsp[2] c_outsp[3]
-0.676872 0.008173 0.736056
0.684097 0.365407 0.63126
-0.940792 -0.309772 0.137664
-0.301098 -0.799269 -0.520106
0.927992 0.342511 -0.146687
-0.801185 -0.472751 -0.366891
0.37131 0.35127 0.859499
-0.420811 -0.904517 -0.0690418
-0.297124 -0.939945 0.167989
0.622828 0.732097 0.275898
-0.443325 -0.233346 0.865455
-0.544459 0.696027 -0.468092
0.188326 0.471372 -0.861593
-0.613685 -0.676243 -0.407537
0.838948 -0.367099 0.401751
0.638203 -0.618748 -0.458091
0.973673 0.22541 0.0339245
0.837858 0.449564 -0.309655
-0.0316667 0.612315 -0.789979
0.780879 -0.170407 -0.60099
0.4376 -0.867471 -0.236644
-0.593861 -0.770204 0.232627
0.698401 0.410299 -0.586422
0.909251 0.37754 -0.175292
0.749727 0.0111986 0.661653
0.42698 0.89883 0.0989547
-0.878699 -0.167855 -0.446892
-0.443898 0.24989 -0.860529
0.0704047 0.48947 0.869174
0.847402 -0.524541 0.0822553
-0.447513 -0.579238 0.681334
0.773669 -0.432613 -0.462907
-0.262679 0.222602 -0.938855
0.255644 0.92973 -0.265045
0.121255 -0.929899 -0.347253
-0.653179 0.742598 -0.148002
0.274793 -0.85476 0.440312
0.425686 -0.611965 -0.666551
-0.230379 0.356967 -0.905262
0.0907546 0.811291 0.577555
-0.860558 -0.0469381 -0.507186
-0.82958 -0.30573 -0.467253
-0.353866 0.30837 -0.882999
0.0026375 -0.827752 -0.561088
-0.216085 0.730545 0.647774
0.192257 0.837333 0.511773
-0.272224 -0.859928 -0.431762
-0.302016 0.100415 -0.948
-0.467477 -0.0933777 -0.87906
0.163823 0.841361 -0.515048
0.0136266 -0.498458 -0.866807
-0.561946 0.793264 -0.234413
0.196732 -0.744228 -0.638296
-0.669748 -0.738903 -0.0738937
ITEM: TIMESTEP
9545
ITEM: NUMBER OF ATOMS
54
ITEM: BOX BOUNDS pp pp pp
0.0000000000000000e+00 8.6303750400000006e+00
0.0000000000000000e+00 8.6303750400000006e+00
0.0000000000000000e+00 8.6303750400000006e+00
ITEM: ATOMS c_outsp[1] c_outsp[2] c_outsp[3]
-0.689277 -0.0200173 0.724221
0.665505 0.352901 0.657696
-0.936392 -0.320745 0.142453
-0.311273 -0.769633 -0.557472
0.930792 0.341285 -0.13096
-0.809423 -0.454773 -0.371504
0.378748 0.386975 0.840714
-0.424453 -0.900757 -0.0920646
-0.278358 -0.944035 0.17696
0.632383 0.722345 0.279837
-0.431956 -0.227522 0.872725
-0.539811 0.696125 -0.473302
0.180823 0.4775 -0.859824
-0.632153 -0.644336 -0.430364
0.806424 -0.424284 0.411902
0.647862 -0.637637 -0.416765
0.976054 0.207391 0.0656263
0.881168 0.375979 -0.286676
-0.0138853 0.605435 -0.795774
0.806867 -0.215511 -0.550018
0.390902 -0.876195 -0.281917
-0.627287 -0.740824 0.24019
0.725318 0.356853 -0.588701
0.928004 0.342093 -0.147585
0.723581 0.016378 0.690045
0.451974 0.88077 0.141296
-0.88309 -0.146511 -0.445743
-0.458632 0.27573 -0.844766
0.0713734 0.500432 0.862829
0.859531 -0.509401 0.0414323
-0.433054 -0.59513 0.676968
0.778062 -0.410324 -0.475661
-0.215827 0.23514 -0.947696
0.290682 0.916053 -0.276316
0.103676 -0.93654 -0.33488
-0.645284 0.748732 -0.151685
0.23745 -0.85521 0.460688
0.430902 -0.612026 -0.663135
-0.261068 0.342259 -0.902609
0.103839 0.808343 0.579481
-0.844002 -0.0411047 -0.534762
-0.829097 -0.254444 -0.497852
-0.34717 0.327953 -0.87859
-0.00833425 -0.799798 -0.600211
-0.195939 0.737605 0.646179
0.203339 0.837148 0.507776
-0.328684 -0.827463 -0.455271
-0.29062 0.102664 -0.951315
-0.455554 -0.0785708 -0.886734
0.223768 0.822486 -0.522919
-0.0098888 -0.516722 -0.856096
-0.507059 0.823561 -0.25424
0.0984622 -0.768825 -0.631833
-0.719889 -0.691908 -0.0549854
ITEM: TIMESTEP
9550
ITEM: NUMBER OF ATOMS
54
ITEM: BOX BOUNDS pp pp pp
0.0000000000000000e+00 8.6303750400000006e+00
0.0000000000000000e+00 8.6303750400000006e+00
0.0000000000000000e+00 8.6303750400000006e+00
ITEM: ATOMS c_outsp[1] c_outsp[2] c_outsp[3]
-0.700577 -0.0494915 0.711859
0.646953 0.33879 0.683135
-0.932038 -0.330915 0.147649
-0.318162 -0.73869 -0.594231
0.934025 0.338243 -0.114839
-0.817454 -0.435264 -0.377246
0.384421 0.421289 0.821423
-0.426905 -0.89683 -0.115963
-0.258626 -0.9477 0.187021
0.641765 0.712328 0.284124
-0.420382 -0.222396 0.87967
-0.535259 0.696484 -0.477921
0.174069 0.484315 -0.857403
-0.646838 -0.612369 -0.454539
0.770225 -0.480291 0.419613
0.656555 -0.654744 -0.374493
0.977522 0.187819 0.095782
0.917516 0.299518 -0.261636
0.00472901 0.597008 -0.802221
0.826962 -0.262434 -0.497254
0.345617 -0.879276 -0.327753
-0.659217 -0.710144 0.247241
0.748446 0.301472 -0.590714
0.944776 0.305048 -0.119768
0.697391 0.0231209 0.716318
0.473993 0.861234 0.18332
-0.886839 -0.126131 -0.44453
-0.471302 0.30035 -0.829255
0.0719121 0.510436 0.856904
0.870665 -0.491876 0.000951614
-0.418517 -0.611622 0.671389
0.781836 -0.387193 -0.488686
-0.168544 0.244867 -0.954795
0.325062 0.900371 -0.289253
0.0856245 -0.942117 -0.324168
-0.637199 0.754865 -0.155423
0.20032 -0.853951 0.48025
0.435997 -0.611974 -0.659844
-0.292522 0.330507 -0.897327
0.118102 0.805206 0.581115
-0.827125 -0.0369061 -0.560805
-0.823831 -0.204687 -0.528589
-0.339022 0.34769 -0.874172
-0.0186619 -0.770761 -0.636851
-0.174818 0.743861 0.645065
0.217201 0.836335 0.503356
-0.38265 -0.790509 -0.478198
-0.279878 0.104003 -0.954386
-0.443334 -0.0644353 -0.894037
0.283026 0.797715 -0.532492
-0.0357221 -0.533728 -0.844901
-0.451018 0.848849 -0.275751
-0.00178063 -0.784197 -0.620509
-0.766461 -0.641199 -0.0374399
ITEM: TIMESTEP
9555
ITEM: NUMBER OF ATOMS
54
ITEM: BOX BOUNDS pp pp pp
0.0000000000000000e+00 8.6303750400000006e+00
0.0000000000000000e+00 8.6303750400000006e+00
0.0000000000000000e+00 8.6303750400000006e+00
ITEM: ATOMS c_outsp[1] c_outsp[2] c_outsp[3]
-0.710651 -0.0802218 0.698956
0.628479 0.323132 0.707531
-0.927779 -0.340256 0.153141
-0.321615 -0.706691 -0.6302
0.937644 0.333379 -0.0984016
-0.825089 -0.414274 -0.384194
0.388363 0.454139 0.80183
-0.428144 -0.892705 -0.140611
-0.238003 -0.950827 0.198197
0.650947 0.702032 0.288824
-0.408693 -0.217973 0.886261
-0.530751 0.697143 -0.48197
0.168165 0.491737 -0.854351
-0.657714 -0.580555 -0.479966
0.73039 -0.534779 0.424902
0.664226 -0.670055 -0.331405
0.978113 0.166883 0.124279
0.946632 0.220798 -0.234813
0.02398 0.586914 -0.809294
0.84086 -0.31084 -0.443095
0.302337 -0.876825 -0.373859
-0.689641 -0.678229 0.253772
0.767718 0.24446 -0.592324
0.959433 0.266544 -0.0918847
0.671298 0.0312051 0.74053
0.493031 0.840456 0.224844
-0.890018 -0.106732 -0.443256
-0.48211 0.323616 -0.814151
0.0720363 0.51945 0.851459
0.880717 -0.472033 -0.0390128
-0.403932 -0.628683 0.664528
0.785008 -0.36321 -0.501837
-0.121108 0.251669 -0.960206
0.358516 0.882695 -0.303837
0.0672717 -0.946661 -0.315131
-0.628948 0.760975 -0.159188
0.163519 -0.851024 0.499019
0.440926 -0.61178 -0.656742
-0.324347 0.321862 -0.889496
0.13355 0.801843 0.582419
-0.810119 -0.0342906 -0.585262
-0.813987 -0.15685 -0.559306
-0.329358 0.367469 -0.869764
-0.0283586 -0.740831 -0.671092
-0.152715 0.749272 0.644414
0.233777 0.834696 0.498629
-0.43378 -0.749305 -0.500377
-0.269961 0.104576 -0.957176
-0.430811 -0.0509815 -0.901001
0.340902 0.766997 -0.5436
-0.0637698 -0.549249 -0.833222
-0.394338 0.868979 -0.298955
-0.102883 -0.789997 -0.604417
-0.809183 -0.587169 -0.0213468
ITEM: TIMESTEP
9560
ITEM: NUMBER OF ATOMS
54
ITEM: BOX BOUNDS pp pp pp
0.0000000000000000e+00 8.6303750400000006e+00
0.0000000000000000e+00 8.6303750400000006e+00
0.0000000000000000e+00 8.6303750400000006e+00
ITEM: ATOMS c_outsp[1] c_outsp[2] c_outsp[3]
-0.719381 -0.112168 0.685499
0.610109 0.30599 0.730847
-0.923662 -0.348749 0.158814
-0.321513 -0.673906 -0.665192
0.941591 0.326691 -0.0817217
-0.832137 -0.391863 -0.392418
0.39062 0.485466 0.782138
-0.428152 -0.888353 -0.165874
-0.216567 -0.953303 0.210502
0.659898 0.691447 0.294
-0.396974 -0.214251 0.892473
-0.526239 0.698127 -0.485481
0.163204 0.499685 -0.850693
-0.66477 -0.549101 -0.506527
0.68698 -0.587414 0.427789
0.670814 -0.683575 -0.287634
0.977871 0.144774 0.151025
0.968314 0.140451 -0.206497
0.0436608 0.575047 -0.816954
0.848306 -0.360361 -0.387965
0.26164 -0.86903 -0.419917
-0.718548 -0.64514 0.259774
0.78309 0.186115 -0.593406
0.971853 0.226734 -0.0639799
0.645422 0.0404133 0.762756
0.509105 0.818669 0.265695
-0.892693 -0.0883231 -0.441926
-0.491271 0.345421 -0.799586
0.0717613 0.527444 0.846554
0.889623 -0.449937 -0.0782794
-0.389328 -0.646274 0.656318
0.787604 -0.33837 -0.514961
-0.0738035 0.255453 -0.964001
0.390764 0.863064 -0.320038
0.0487769 -0.95021 -0.307768
-0.62056 0.767041 -0.162951
0.127159 -0.846474 0.517022
0.445643 -0.611412 -0.653895
-0.356143 0.316429 -0.879224
0.150186 0.798212 0.583354
-0.793172 -0.0331895 -0.608093
-0.799804 -0.111298 -0.589852
-0.318122 0.38717 -0.865389
-0.0374363 -0.710181 -0.703024
-0.129625 0.75379 0.644204
0.252972 0.832033 0.493687
-0.48176 -0.704122 -0.52165
-0.261021 0.104542 -0.959656
-0.41797 -0.0382312 -0.907656
0.396693 0.730364 -0.55606
-0.0939029 -0.563069 -0.821057
-0.337554 0.883849 -0.323835
-0.203696 -0.785993 -0.583715
-0.847827 -0.53023 -0.00678746
ITEM: TIMESTEP
9565
ITEM: NUMBER OF ATOMS
54
ITEM: BOX BOUNDS pp pp pp
0.0000000000000000e+00 8.6303750400000006e+00
0.0000000000000000e+00 8.6303750400000006e+00
0.0000000000000000e+00 8.6303750400000006e+00
ITEM: ATOMS c_outsp[1] c_outsp[2] c_outsp[3]
-0.726646 -0.145278 0.671476
0.591862 0.287428 0.75305
-0.919734 -0.356386 0.164552
-0.317767 -0.64062 -0.699021
0.945807 0.318184 -0.0648735
-0.838404 -0.368098 -0.401972
0.391245 0.515223 0.762543
-0.42692 -0.883755 -0.191617
-0.194402 -0.955019 0.223936
0.668584 0.680564 0.299713
-0.385309 -0.211218 0.89829
-0.52168 0.699447 -0.488492
0.15927 0.508074 -0.84646
-0.668002 -0.518202 -0.534079
0.64008 -0.637863 0.428286
0.67625 -0.695332 -0.24331
0.976849 0.121686 0.175948
0.982436 0.0591138 -0.176988
0.0635568 0.561328 -0.82515
0.849106 -0.410598 -0.332307
0.224079 -0.856161 -0.465593
-0.745926 -0.610938 0.265235
0.794542 0.126733 -0.593837
0.981927 0.185784 -0.0361018
0.619862 0.050537 0.783082
0.522262 0.796107 0.305706
-0.894925 -0.0709102 -0.440546
-0.499 0.365685 -0.785668
0.0711016 0.53439 0.842242
0.897334 -0.425656 -0.116659
-0.374738 -0.664349 0.646693
0.789657 -0.312676 -0.527897
-0.0269218 0.256148 -0.966263
0.421529 0.841545 -0.33781
0.0302868 -0.952809 -0.302057
-0.612065 0.773043 -0.166679
0.091349 -0.840351 0.534289
0.45011 -0.610837 -0.651366
-0.387505 0.31427 -0.866645
0.168006 0.794269 0.583876
-0.776461 -0.0335177 -0.629274
-0.781552 -0.0683645 -0.620082
-0.305268 0.406661 -0.861068
-0.0459043 -0.678958 -0.73274
-0.105552 0.757363 0.644406
0.274666 0.828145 0.488605
-0.526313 -0.655266 -0.541868
-0.25319 0.104076 -0.961802
-0.404795 -0.0262179 -0.914032
0.449696 0.687936 -0.569664
-0.125967 -0.574984 -0.808409
-0.281216 0.893405 -0.35035
-0.303045 -0.772079 -0.558622
-0.882214 -0.470809 0.00616351
ITEM: TIMESTEP
9570
ITEM: NUMBER OF ATOMS
54
ITEM: BOX BOUNDS pp pp pp
0.0000000000000000e+00 8.6303750400000006e+00
0.0000000000000000e+00 8.6303750400000006e+00
0.0000000000000000e+00 8.6303750400000006e+00
ITEM: ATOMS c_outsp[1] c_outsp[2] c_outsp[3]
-0.732329 -0.179485 0.656871
0.573749 0.267511 0.774112
-0.916041 -0.363165 0.170237
-0.310325 -0.607127 -0.731502
0.950222 0.307866 -0.0479306
-0.843695 -0.343058 -0.412904
0.390303 0.543377 0.743239
-0.424446 -0.878893 -0.217698
-0.171593 -0.955865 0.23849
0.676969 0.669377 0.306019
-0.373776 -0.208857 0.903698
-0.517035 0.701102 -0.491051
0.156434 0.516817 -0.841682
-0.667421 -0.488046 -0.56246
0.589797 -0.685798 0.426404
0.680462 -0.705369 -0.198562
0.975108 0.0978069 0.198993
0.98894 -0.0225819 -0.146588
0.0834485 0.545695 -0.833819
0.843127 -0.461129 -0.276581
0.190167 -0.838563 -0.510537
-0.771761 -0.575681 0.270143
0.802071 0.0666026 -0.593503
0.989562 0.143867 -0.00829866
0.594696 0.0613799 0.801604
0.53257 0.773005 0.344721
-0.896772 -0.0544944 -0.439125
-0.505515 0.384352 -0.772482
0.0700703 0.540257 0.838578
0.903818 -0.399262 -0.153958
-0.360193 -0.682849 0.635593
0.791205 -0.28614 -0.540479
0.0192429 0.253711 -0.967089
0.450531 0.818233 -0.357094
0.0119342 -0.954504 -0.297961
-0.603498 0.778958 -0.170336
0.0561944 -0.832707 0.550855
0.454292 -0.610027 -0.649219
-0.418035 0.315398 -0.851922
0.186999 0.789968 0.583936
-0.760151 -0.0351747 -0.648794
-0.759525 -0.0283492 -0.64986
-0.290762 0.425801 -0.856826
-0.0537681 -0.647297 -0.76034
-0.0805022 0.759939 0.64499
0.298715 0.822837 0.483434
-0.567194 -0.603068 -0.560892
-0.246574 0.103361 -0.963596
-0.391265 -0.014987 -0.920156
0.499218 0.639922 -0.584193
-0.159787 -0.584804 -0.795281
-0.22588 0.897645 -0.378432
-0.399754 -0.748275 -0.529415
-0.912216 -0.409339 0.0174382
ITEM: TIMESTEP
9575
ITEM: NUMBER OF ATOMS
54
ITEM: BOX BOUNDS pp pp pp
0.0000000000000000e+00 8.6303750400000006e+00
0.0000000000000000e+00 8.6303750400000006e+00
0.0000000000000000e+00 8.6303750400000006e+00
ITEM: ATOMS c_outsp[1] c_outsp[2] c_outsp[3]
-0.736314 -0.21471 0.641671
0.555769 0.246306 0.794011
-0.912623 -0.369092 0.175756
-0.299172 -0.573729 -0.762451
0.954762 0.295755 -0.0309661
-0.847813 -0.316826 -0.425246
0.387867 0.569905 0.724408
-0.420739 -0.873758 -0.243977
-0.14823 -0.955741 0.254141
0.685012 0.657882 0.31297
-0.362448 -0.207145 0.908692
-0.512273 0.703076 -0.493215
0.154759 0.525827 -0.836394
-0.663049 -0.458813 -0.591486
0.536267 -0.730896 0.422148
0.68337 -0.713749 -0.153518
0.972712 0.0733186 0.220126
0.987835 -0.104012 -0.115602
0.103115 0.528113 -0.84289
0.830302 -0.511513 -0.221254
0.160374 -0.816656 -0.554394
-0.796038 -0.539428 0.274481
0.805698 0.00600537 -0.592297
0.994681 0.101163 0.019381
0.569984 0.0727608 0.818428
0.540125 0.749589 0.382598
-0.898286 -0.0390724 -0.437672
-0.511029 0.401391 -0.760089
0.0686789 0.545019 0.835606
0.909063 -0.37083 -0.189973
-0.345727 -0.70171 0.622957
0.792294 -0.258783 -0.552541
0.064396 0.248122 -0.966586
0.477496 0.793255 -0.377814
-0.0061626 -0.955345 -0.29543
-0.594896 0.784769 -0.173885
0.021796 -0.823597 0.566757
0.458158 -0.60895 -0.647512
-0.447347 0.31978 -0.835238
0.207151 0.78526 0.583486
-0.744394 -0.0380461 -0.666656
-0.734037 0.00848166 -0.679057
-0.274583 0.44444 -0.852688
-0.0610293 -0.615311 -0.785918
-0.0544903 0.76146 0.645917
0.324952 0.815922 0.478203
-0.6042 -0.547877 -0.578596
-0.241257 0.102589 -0.965023
-0.37736 -0.00459576 -0.926055
0.544595 0.58662 -0.59941
-0.195165 -0.592361 -0.781677
-0.172107 0.89662 -0.407985
-0.492657 -0.714737 -0.496427
-0.937754 -0.346251 0.0269744
ITEM: TIMESTEP
9580
ITEM: NUMBER OF ATOMS
54
ITEM: BOX BOUNDS pp pp pp
0.0000000000000000e+00 8.6303750400000006e+00
0.0000000000000000e+00 8.6303750400000006e+00
0.0000000000000000e+00 8.6303750400000006e+00
ITEM: ATOMS c_outsp[1] c_outsp[2] c_outsp[3]
-0.73849 -0.25086 0.625861
0.537916 0.223875 0.812727
-0.909522 -0.37418 0.180996
-0.284327 -0.54073 -0.791687
0.959348 0.281877 -0.014052
-0.850561 -0.289498 -0.439018
0.384018 0.594794 0.706222
-0.415816 -0.868348 -0.270313
-0.124403 -0.954547 0.270857
0.69267 0.646076 0.320614
-0.35139 -0.206052 0.913273
-0.507372 0.705341 -0.495043
0.154296 0.535017 -0.830632
-0.654925 -0.430679 -0.620958
0.479654 -0.772836 0.415519
0.68489 -0.720553 -0.108302
0.969733 0.0483964 0.239325
0.979195 -0.184569 -0.0843296
0.122335 0.508573 -0.852284
0.810633 -0.561294 -0.166801
0.135112 -0.790928 -0.596806
-0.818743 -0.502241 0.278232
0.805456 -0.0547832 -0.590119
0.997223 0.0578613 0.04689
0.545775 0.0845154 0.833659
0.545043 0.726081 0.419208
-0.899514 -0.0246369 -0.436196
-0.515745 0.416793 -0.748525
0.0669362 0.548648 0.83337
0.913072 -0.340439 -0.224501
-0.331371 -0.720857 0.608735
0.792974 -0.230638 -0.563913
0.108245 0.239392 -0.96487
0.502159 0.766768 -0.39988