LAMMPS data file via write_data, version 4 May 2022, timestep = 200000

640 atoms
1 atom types

0 27.155 xlo xhi
0 21.724 ylo yhi
0 21.724 zlo zhi

Masses

1 27.9

Atoms # atomic

421 1 13.559557862362096 5.434038619024998 8.290030523794508 0 0 0
2 1 0.18216727824820886 2.571357726239232 2.738553473552175 0 0 0
3 1 2.755258143960837 0.10554145341438378 2.5615286106415027 0 0 0
362 1 13.448286830546202 13.567624366905076 0.03768024200741995 0 0 0
5 1 1.365937563677935 1.332631553107336 1.1956170380792612 0 0 0
361 1 13.454845351139554 10.917297070826079 2.7204571330765037 0 0 0
10 1 5.499741505767075 2.572155970877459 2.790880387570084 0 0 0
11 1 8.18857311188973 21.683967808552232 2.716368462826784 0 -1 0
12 1 8.120443261047363 2.891502872547669 0.00567450436621893 0 0 0
13 1 6.810760267514415 1.291242224551329 1.2603352924453795 0 0 0
17 1 10.833333086129757 21.71477327732094 0.09651613353725401 0 -1 0
18 1 10.718518726732711 2.821305418514324 2.5927714145743126 0 0 0
19 1 12.228057177760443 1.4598555464700338 1.3614418222897902 0 0 0
21 1 0.038956045241968586 5.316552916240269 0.0877114839170597 0 0 0
23 1 2.9095690045636418 5.272549480156551 2.5201711772475774 0 0 0
8 1 4.282320037560428 3.81203021953646 1.2442929201146335 0 0 0
342 1 13.53110784924588 8.174774323252521 0.08273642036861181 0 0 0
31 1 8.265440021526532 5.474049618572979 2.5471063752971723 0 0 0
16 1 9.718929396059734 4.329223458210236 1.197069760592925 0 0 0
341 1 13.570251356290301 5.236968807668339 2.7423478372750507 0 0 0
160 1 12.266861511476545 20.214535759403564 9.450750082889584 0 0 0
24 1 2.6934363824252743 8.07787734510795 0.07580215586474603 0 0 0
25 1 1.3843245205135906 6.721361471584404 1.4379685768197148 0 0 0
30 1 5.496261457242934 8.085544764478446 2.6372782138685658 0 0 0
32 1 8.169636064399151 8.2087890123655 0.0670839222467153 0 0 0
33 1 6.7921963207147025 6.662369531945248 1.1659499196400622 0 0 0
38 1 10.893531883851463 8.179400567974826 2.687568317336954 0 0 0
39 1 12.20447392162846 6.6634307290217 1.430980554698752 0 0 0
41 1 0.13153616555721756 10.926506159819233 0.0938493025063052 0 0 0
43 1 2.6786190205940126 10.867308253071057 2.7609358056088444 0 0 0
28 1 4.0269182404034005 9.530440751467628 1.4617997214667926 0 0 0
49 1 5.251878603303227 10.871938218315652 0.009353887253248342 0 0 0
51 1 8.135509854461551 11.042057118238967 2.518739207456712 0 0 0
36 1 9.555219016003901 9.607684368222621 1.428407289902575 0 0 0
57 1 10.831833675720317 11.01488819279763 0.159510480422966 0 0 0
45 1 1.3773592155309597 12.324260892864041 1.4876453243068075 0 0 0
53 1 6.730466042422668 12.302472861456993 1.225787168513459 0 0 0
59 1 12.164463475555573 12.359043271373547 1.4860710571356197 0 0 0
42 1 0.05904943160210863 13.587845736038968 2.9209303983542636 0 0 0
44 1 2.6817407936657136 13.762739652054242 0.082956810205734 0 0 0
154 1 6.856921249576454 20.30660533727159 9.599479671145634 0 0 0
63 1 2.9519324916420793 16.082235465740265 2.936989238360102 0 0 0
48 1 4.125401426393485 14.933598828785643 1.3560422402405796 0 0 0
50 1 5.497477492395624 13.53502839270725 2.7831330909298475 0 0 0
69 1 5.52838286978306 16.192992469402338 0.04169427701390078 0 0 0
52 1 8.04180101422107 13.750274088488135 0.01652042606618393 0 0 0
71 1 8.245518962115 16.400128523947146 2.874552645024061 0 0 0
56 1 9.461940951540429 15.019153399150738 1.512994573506284 0 0 0
58 1 10.747300544566249 13.595445697039029 2.862483852940437 0 0 0
77 1 10.855638585272045 16.34425665300298 0.18780223173502325 0 0 0
65 1 1.5287694221298793 17.46854845337469 1.5726028481223615 0 0 0
73 1 6.822981940242179 17.666411792123572 1.3657604214543677 0 0 0
79 1 12.34123723533611 17.600384949939304 1.4656130922518782 0 0 0
62 1 0.20679529842198094 19.044024982106666 2.7521123740500864 0 0 0
64 1 2.7444790846020504 18.83538900255494 0.08080251626734143 0 0 0
68 1 4.0507291035657 20.340551425092286 1.3460025414939218 0 0 0
70 1 5.405785346004503 18.88286972528506 2.618910277965075 0 0 0
126 1 1.3918445467561953 14.790507311356237 9.281000704624025 0 0 0
76 1 9.422635588782452 20.29708688479169 1.3210600860079897 0 0 0
78 1 10.96767164865728 19.022812236012324 2.6651235668265683 0 0 0
146 1 1.1815053464570573 20.14107661154172 9.548975453287953 0 0 0
84 1 2.567874497390755 2.4033356954089506 5.3850254254434535 0 0 0
7 1 4.144720423020669 1.2023299006785308 4.079468162009151 0 0 0
89 1 5.381392937188702 21.432903761359384 5.493107596407126 0 -1 0
92 1 8.27080947947654 2.728357342855344 5.28377123227453 0 0 0
15 1 9.566161958228008 1.263977118128667 4.003307137894208 0 0 0
97 1 10.890759356890808 21.722197517221694 5.486868001158145 0 -1 0
6 1 1.4880642031347033 4.006908911713666 4.009712559347139 0 0 0
101 1 0.00905199298083937 5.373626832955181 5.398515967026546 0 0 0
109 1 5.506156170086419 5.197760866569333 5.420522338175829 0 0 0
14 1 6.867765292978949 4.075297628422138 3.9137218792569217 0 0 0
117 1 11.042309309696387 5.467535277439673 5.47323195793902 0 0 0
20 1 12.30884664150026 3.9942250815948714 4.177692654993248 0 0 0
104 1 3.005737561700883 7.928280486325769 5.464889475963225 0 0 0
27 1 4.275313749633854 6.554008794261233 4.063905982341521 0 0 0
112 1 8.201250279096332 8.061476351522023 5.262786362338084 0 0 0
35 1 9.680212469352453 6.74671384855376 4.0480035716632 0 0 0
26 1 1.461433720199368 9.277980392289905 4.081886188242856 0 0 0
155 1 9.636812462688322 17.5796997168676 9.599287999250384 0 0 0
129 1 5.4361326846558375 10.649605729603612 5.4396100822817814 0 0 0
34 1 7.041380214419709 9.528827078156194 3.9055079229664447 0 0 0
137 1 10.727938238676458 10.745122980829366 5.462201346238095 0 0 0
40 1 12.226748094776418 9.387234582887274 4.071327738096364 0 0 0
47 1 4.1341986444462435 12.12879962316267 4.093085707088605 0 0 0
55 1 9.417868641736952 12.123889055969261 4.095637531071127 0 0 0
46 1 1.4873078277665153 14.883297614303883 4.236541887938991 0 0 0
124 1 2.613397918358317 13.263096438315515 5.53354404855957 0 0 0
141 1 0.0807494193869213 16.43372699307031 5.404905287295999 0 0 0
149 1 5.444902145009079 16.243433009427058 5.566823972997797 0 0 0
54 1 6.829982189034048 14.957910438657628 4.1503758123865 0 0 0
132 1 8.200058364452007 13.630466094312286 5.494237323861728 0 0 0
157 1 11.055914544048685 16.278889056399244 5.452249012789522 0 0 0
60 1 12.346923051534887 14.901914508296487 4.131738804466485 0 0 0
67 1 4.165685131257429 17.653782007224546 4.195225107914525 0 0 0
75 1 9.69017279979242 17.763765107197628 4.261886715479393 0 0 0
66 1 1.3796357954723457 20.54220749182588 4.101410286368188 0 0 0
144 1 2.7919364223580736 19.16149490228084 5.3901776266295 0 0 0
74 1 6.880313525709867 20.260484393588843 4.020481747927491 0 0 0
152 1 8.275206625824133 19.05960399139872 5.522385854644384 0 0 0
80 1 12.274841146225898 20.366031215439815 4.015343277122199 0 0 0
147 1 4.0940112711934225 17.560234712159048 9.529372000350024 0 0 0
83 1 2.635928890027852 21.626837004311835 8.255281759142196 0 -1 0
85 1 1.255686797542262 1.156437873289197 6.86565833716033 0 0 0
90 1 5.328740590797048 2.5636880637182653 8.081864619408883 0 0 0
91 1 8.012186602552802 0.03051579941815405 8.072568217937995 0 0 0
93 1 6.753466965169513 1.3257011076363725 6.633230225597929 0 0 0
98 1 10.963378338903873 2.6672641235708765 8.050680427066343 0 0 0
99 1 12.314865309435724 1.260281120496369 6.746627210501949 0 0 0
103 1 2.7696460727427348 5.260366256144794 8.06842052283321 0 0 0
88 1 3.9620878662138788 3.8372361342526955 6.615080938260022 0 0 0
111 1 8.165989080646222 5.311402790329494 7.931264772914342 0 0 0
96 1 9.643568803705158 4.111304561456845 6.66458866157353 0 0 0
102 1 0.1801169601514423 8.060725214265272 7.925356621241764 0 0 0
105 1 1.5186559682296883 6.613201039783751 6.647723104652871 0 0 0
110 1 5.457623431082048 7.884239503920123 8.2243345402079 0 0 0
113 1 6.764747165735392 6.715663284303301 6.614608631654139 0 0 0
118 1 10.834820542362069 8.215223758540972 8.25279454740775 0 0 0
119 1 12.244541598951763 6.820097534971462 6.9391763641725035 0 0 0
123 1 2.654371875914576 10.795350835735727 8.02011924767064 0 0 0
108 1 4.075987504313494 9.384367305133074 6.87590490033027 0 0 0
131 1 8.229429956547795 10.779453825290904 8.1400820292077 0 0 0
116 1 9.397539235510326 9.375014278220975 6.845655335236804 0 0 0
125 1 1.1490479593865166 12.073410973996985 6.813898402169385 0 0 0
133 1 6.769928948260115 12.144181334244772 6.749592298385683 0 0 0
139 1 12.239454739499257 12.152117694489345 6.68639896997744 0 0 0
140 1 12.186001580588512 14.767574553053514 9.302066553718957 0 0 0
143 1 2.859939083596848 16.191740728439445 8.059290170988197 0 0 0
128 1 4.052563384755402 14.607218117800018 6.7204609159620885 0 0 0
130 1 5.353322547155984 13.499871566663552 8.208880004692615 0 0 0
151 1 8.358426727311416 16.357565757309448 8.161006267978067 0 0 0
136 1 9.50972411019984 15.033962222266421 6.75062723446515 0 0 0
138 1 10.813410282805517 13.494012916840763 7.999152266364588 0 0 0
145 1 1.5689977738406116 17.733274530189767 6.670715362898253 0 0 0
153 1 6.8708347142637125 17.659054060732508 6.852922850571756 0 0 0
159 1 12.284647677629975 17.701243924385665 6.693421529489032 0 0 0
134 1 6.749493384624286 15.024888243789766 9.358185001952277 0 0 0
148 1 4.052014890197041 20.226123935573145 7.058691196485856 0 0 0
150 1 5.581523681515236 18.818566937503807 8.292103147653991 0 0 0
156 1 9.537030369479941 20.454137118947664 6.941829575036161 0 0 0
158 1 10.905343410869103 18.92667686687849 8.148632567733133 0 0 0
87 1 3.9804240561633444 1.2988469870633397 9.578335396829333 0 0 0
95 1 9.53551181989686 1.3125815464071757 9.342095708960867 0 0 0
86 1 1.3809485513251902 4.0193279789877865 9.47753199331437 0 0 0
94 1 6.848296910766181 4.036949853694437 9.356914866212428 0 0 0
100 1 12.117157161498314 4.090868865960887 9.517138539999946 0 0 0
107 1 3.9103681099942382 6.676253539726218 9.552904240594545 0 0 0
115 1 9.46461262373725 6.741196162204148 9.354471775180786 0 0 0
106 1 1.4760538674666328 9.280455920756518 9.500294907207282 0 0 0
114 1 6.809511645282039 9.43252525848039 9.320256695448963 0 0 0
120 1 12.22273929783401 9.687307144294223 9.514559624764779 0 0 0
127 1 3.9583746960885255 12.053793445137424 9.506149848333846 0 0 0
135 1 9.493894075865498 12.23467282030287 9.502463864965799 0 0 0
164 1 2.750868571039557 2.7818194774310063 10.856708863163997 0 0 0
172 1 8.134351021777148 2.634420785841176 10.77528213728622 0 0 0
177 1 10.724879251186724 21.507517086078018 10.718801192435894 0 -1 0
189 1 5.427256145581373 5.3293108017290525 10.746168320245651 0 0 0
197 1 10.771397459288087 5.495175951254765 10.800771808376746 0 0 0
192 1 8.113928947188791 8.071417731402754 10.790912509927272 0 0 0
201 1 0.1865176342795795 10.73253095374998 10.832112808979371 0 0 0
209 1 5.4757737648887765 10.767309033974522 10.703529170584005 0 0 0
204 1 2.733611794382697 13.598227371346201 10.709166807994222 0 0 0
212 1 8.027988762578046 13.64994168632772 10.743647151467586 0 0 0
237 1 11.011166012828882 16.162460835152476 10.820186640964723 0 0 0
161 1 0.06657839413071658 21.684242817015388 10.90742605399667 0 -1 0
621 1 13.370001561155837 16.36517746092378 19.102852408817828 0 0 0
165 1 1.37479277071087 1.478354256601175 12.256177159583432 0 0 0
169 1 5.3529259673803375 21.669044041816395 10.888952860608045 0 -1 0
601 1 13.498559894696971 11.003424844272672 19.051656580020804 0 0 0
173 1 6.792522404381609 1.2916014779774607 12.21734567293846 0 0 0
622 1 13.52091420307051 19.106593531273386 16.267947266392678 0 0 0
179 1 11.981877274357553 1.2629567485104845 12.125798568917515 0 0 0
181 1 0.03870535326573065 5.32576712910654 10.864952463480096 0 0 0
168 1 4.024004489111576 4.087003119360924 12.220368912312496 0 0 0
602 1 13.541870053630873 13.622486663365613 16.20348179539339 0 0 0
176 1 9.396397315694339 4.083011281331111 12.198627929165788 0 0 0
521 1 13.410750937200616 10.893355080636614 13.851958037997044 0 0 0
184 1 2.825330087013269 8.116205084869314 11.069044670910795 0 0 0
185 1 1.335358158924571 6.665769975565684 12.286166405385032 0 0 0
582 1 13.513443893404778 8.191591363819747 16.363380092303153 0 0 0
193 1 6.651661403790097 6.774513377618918 12.193688924455401 0 0 0
199 1 12.083695708246726 6.780793581892301 12.165280814501392 0 0 0
501 1 13.466796935495065 5.5349874194037625 13.581407950290966 0 0 0
188 1 4.081326457971073 9.718221958260585 12.185354115605675 0 0 0
481 1 13.474551551900666 21.62556633215834 13.47176694508093 0 -1 0
196 1 9.359354347630587 9.54818211246181 12.168561485125096 0 0 0
217 1 10.840815417238545 10.884695739391027 10.989697174226118 0 0 0
205 1 1.462006079492149 12.345130890735158 12.198414226133165 0 0 0
213 1 6.809044258928193 12.262079220658649 12.067748657515642 0 0 0
219 1 12.298122255627165 12.256723073089486 12.287601408738732 0 0 0
502 1 13.572018298037637 8.257093674415993 10.927883247374357 0 0 0
221 1 0.16082665251575443 16.067497687905746 10.9034636981961 0 0 0
208 1 4.024852567538655 14.978343424060624 12.183693917364147 0 0 0
229 1 5.468986598111222 16.273996820306575 10.87647224719392 0 0 0
482 1 13.38463724656606 2.747628950192287 10.983120206642504 0 0 0
216 1 9.319656666796394 15.030287350035303 12.05570753587595 0 0 0
294 1 6.623344802392648 14.817587988252011 20.264039156583134 0 0 0
225 1 1.2795144385032078 17.641950815000484 12.27999723908865 0 0 0
233 1 6.778397005257417 17.590644779099044 12.444592919534454 0 0 0
239 1 12.188613896352162 17.66839746989686 12.214990897855115 0 0 0
224 1 2.686294384918425 18.998642306504077 10.866806743945098 0 0 0
228 1 4.062575184234435 20.278233877323597 12.307616160026004 0 0 0
232 1 8.162519878641469 18.930865438074047 11.026356681768226 0 0 0
236 1 9.464181036997733 20.526099586588135 12.379352190315588 0 0 0
320 1 12.36849037564195 20.440710114998385 20.57170496422939 0 0 0
163 1 2.7173341699789315 0.042192643247113845 13.529482054451655 0 0 0
318 1 10.976284695845607 19.20229290201254 19.220543029944036 0 0 0
244 1 2.7761003296507267 2.7290866767506996 16.36710683503577 0 0 0
167 1 4.0777260026315885 1.3951312374079206 14.880749252665316 0 0 0
170 1 5.43599877474953 2.6941797834939516 13.449134898891767 0 0 0
249 1 5.362838341403181 0.10792387633848156 16.342075778253374 0 0 0
171 1 8.028698562355244 21.718454329915712 13.75590147572533 0 -1 0
252 1 7.937248341924052 2.964578225223248 16.093778912088105 0 0 0
175 1 9.30757242757766 1.4910380651156654 14.995007929053036 0 0 0
178 1 10.755902635816032 2.749320223643935 13.601484793835365 0 0 0
257 1 10.779400557099263 0.25590896389714746 16.438344472317617 0 0 0
166 1 1.414583114841542 4.0861022364120965 15.082315679538734 0 0 0
183 1 2.742935009712784 5.377834752381359 13.60846081966807 0 0 0
314 1 6.686574619985432 20.354517217640954 20.22146392282658 0 0 0
269 1 5.301499307111686 5.494872729386283 16.437552795542157 0 0 0
174 1 6.534127700968395 4.348064802346826 14.82297951703782 0 0 0
191 1 8.104360800591545 5.5108889184056284 13.582906371091365 0 0 0
277 1 10.894930924774789 5.5007774426795155 16.3285632603722 0 0 0
180 1 12.254399188713906 4.034454194986356 15.074532097954755 0 0 0
310 1 5.289919802654198 18.86117806672638 18.99832636543503 0 0 0
264 1 2.741709715626694 8.160216624479569 16.32053701816611 0 0 0
187 1 4.137986980947872 6.806703562466817 14.94987537625007 0 0 0
190 1 5.288566493207553 8.230272608247388 13.571154570259777 0 0 0
272 1 8.147680948740039 8.309376838375508 16.41058569210545 0 0 0
195 1 9.385885617392711 6.8185070522334845 15.046093387019484 0 0 0
198 1 10.735685246652828 8.144504884686755 13.570078835507315 0 0 0
186 1 1.3536487888398072 9.477200070974805 14.890695562063309 0 0 0
203 1 2.72123409002806 10.839745697384256 13.627062167009246 0 0 0
306 1 1.564966089978067 20.32051928398901 20.30099180393317 0 0 0
289 1 5.398512067940379 10.794918074155756 16.088713242682143 0 0 0
194 1 6.954555933119312 9.491569792752053 14.801412415875086 0 0 0
211 1 8.24184096950375 11.134095031470387 13.545621486747933 0 0 0
297 1 10.801846651107203 10.842118608634006 16.46146171998874 0 0 0
200 1 12.094750319824898 9.485548092881814 15.02549494408345 0 0 0
207 1 4.028049898373623 12.236648707099706 14.895148098547438 0 0 0
215 1 9.669787640705577 12.257205388301722 15.019730484108038 0 0 0
302 1 0.04179995412906301 19.143899035331696 18.94337552122417 0 0 0
206 1 1.2861212846462335 14.910194162377456 14.854188567386252 0 0 0
223 1 2.62681676472675 16.243131589869357 13.59706715410854 0 0 0
284 1 2.5383624879085995 13.528734186758523 16.238218718939788 0 0 0
315 1 9.409564088379664 17.676760514236435 20.54581736367015 0 0 0
210 1 5.383590300326293 13.499107897021364 13.416030643165017 0 0 0
309 1 5.2528343283796515 16.06988992912818 16.137469847775083 0 0 0
214 1 6.808678206577579 14.806199206894965 14.851012325310368 0 0 0
231 1 8.303652502933524 16.34269459427416 13.673316701633931 0 0 0
292 1 8.149249573328916 13.524206176370209 16.418447040346525 0 0 0
218 1 10.80237145560074 13.686661781993617 13.612412161123821 0 0 0
317 1 10.894479160385059 16.340795121528817 16.42387702831017 0 0 0
220 1 12.300629371324533 15.004950297431547 14.959089589046485 0 0 0
227 1 3.9102027079997406 17.61517932598527 15.012359179349996 0 0 0
235 1 9.61688565250438 17.72012512400291 15.045062463388938 0 0 0
307 1 4.105605501500208 17.492498952644322 20.42313934116455 0 0 0
226 1 1.2573160454593582 20.415758540250092 14.888641111209273 0 0 0
304 1 2.7709213978893428 19.291989056652046 16.245304751667337 0 0 0
230 1 5.388635815589318 18.9790522963672 13.780358183367564 0 0 0
234 1 6.812291065299689 20.37146440483633 15.13246436969624 0 0 0
312 1 8.222906892789073 19.00399065986916 16.535651343421286 0 0 0
238 1 10.854852447182697 19.012962142495336 13.597863298840336 0 0 0
240 1 12.109123169043084 20.476391747958537 15.034770122216361 0 0 0
245 1 1.3770316898114878 1.5312306171145134 17.81074473929195 0 0 0
253 1 6.826709607553574 1.5404767674811923 17.558050711037932 0 0 0
259 1 12.234518639774187 1.494692809141493 17.749520319407377 0 0 0
248 1 3.9971927351739884 4.163037001464206 17.826174996753334 0 0 0
256 1 9.395672900999767 4.099253906040257 17.66283793384599 0 0 0
265 1 1.0737303172969517 7.00137911901916 17.651061948605356 0 0 0
273 1 6.714599226543874 6.904315277190141 17.69191049958265 0 0 0
279 1 12.393197453208373 6.762092138139541 17.810483750552212 0 0 0
268 1 4.128949590759123 9.63405290790048 17.60871951120039 0 0 0
276 1 9.38414324552266 9.723343444921694 17.878318511910255 0 0 0
285 1 1.2512310951134566 12.257708969900666 17.68074779740933 0 0 0
293 1 6.623775135703977 12.229068206801795 17.62943404409405 0 0 0
299 1 12.066472576785635 12.437254888015227 17.69337913492426 0 0 0
288 1 3.8605428356628977 14.860268730407341 17.608521892917846 0 0 0
296 1 9.378674987186505 15.116062471579019 17.657347581682636 0 0 0
305 1 1.410234487564716 17.794450167394515 17.56736053569073 0 0 0
313 1 6.618734859243734 17.477010509885417 17.635860559531263 0 0 0
319 1 12.130626542534818 17.829094313846483 17.770995852153483 0 0 0
308 1 4.166820397903127 20.45909299561005 17.730504863540755 0 0 0
316 1 9.452541520844974 20.591393237969122 17.809776605852836 0 0 0
300 1 12.042500069001893 14.929011844533443 20.443270442056583 0 0 0
243 1 2.689980192246033 0.0837456429285571 19.056633823466232 0 0 0
247 1 4.080476470727537 1.4192814571793968 20.3338051959953 0 0 0
250 1 5.511659087954866 2.791504174938777 18.965277532825034 0 0 0
251 1 8.115125174539793 0.24878164169040448 19.120028858742927 0 0 0
255 1 9.60051004110736 1.560478479741093 20.515927698445697 0 0 0
258 1 10.743730583912555 2.824296293953632 18.952264093364487 0 0 0
246 1 1.2761115989119154 4.025932484184663 20.22974271478264 0 0 0
263 1 2.399860138074227 5.480591980231672 18.879315052137187 0 0 0
254 1 6.8103463255538035 4.125362142437776 20.3071112138053 0 0 0
271 1 8.084559541464161 5.616930319694674 19.07546672511105 0 0 0
260 1 12.34524806239756 4.063271951328408 20.29931582136921 0 0 0
298 1 10.596359550870162 13.723132107208315 19.009322787024747 0 0 0
267 1 3.862716924751938 6.691156057227672 20.352762106345306 0 0 0
270 1 5.2035952494021265 8.106109190139334 18.93940432470136 0 0 0
275 1 9.536556292363974 6.917162161358917 20.403691825119047 0 0 0
278 1 10.928594480460966 8.246228777444609 19.02530902869328 0 0 0
266 1 1.469037231866778 9.567755170788267 20.409123822999007 0 0 0
283 1 2.6453614927995837 10.971124296527238 18.936998591021798 0 0 0
274 1 6.607751968225087 9.44648002806874 20.40902728564926 0 0 0
291 1 7.905212469581191 10.884901150514976 19.12864024854596 0 0 0
280 1 12.17203845138654 9.584704801007588 20.520912711750235 0 0 0
287 1 3.8812530457590424 12.24616182061033 20.479657447562914 0 0 0
295 1 9.342453432998628 12.32402300524612 20.396994784112106 0 0 0
311 1 8.074283163607397 16.347375394129365 19.11093530889902 0 0 0
286 1 1.2075471103283628 15.067666596954462 20.41876812161091 0 0 0
303 1 2.5561982656352336 16.304502254033657 19.022102864419423 0 0 0
290 1 5.283043643209939 13.494926306944482 19.001460645811044 0 0 0
1 1 0.1394522064906998 21.491393726690962 21.683675666978953 0 -1 -1
4 1 2.715487475042391 2.6641847720975265 21.597747087237593 0 0 -1
9 1 5.457935719749769 21.679013847365116 21.59346981265135 0 -1 -1
29 1 5.341532494389813 5.380069943032096 21.650550600747888 0 0 -1
37 1 11.02457207370795 5.47733607289227 21.53026507419541 0 0 -1
72 1 7.986403034064059 19.11982760798374 21.66708897520478 0 0 -1
321 1 13.668535218135684 0.08709258968128591 2.691447821946058 0 0 0
142 1 27.15379852470367 18.835564818103936 8.18377797519383 -1 0 0
122 1 26.936440931789022 13.533689289931816 8.171786778657916 -1 0 0
326 1 16.516855945057866 2.817237259169763 2.580376351033245 0 0 0
329 1 17.658755957069065 1.268859621029831 1.3168731569980279 0 0 0
327 1 19.151375993547227 0.03260530489421492 2.6623349996326673 0 0 0
82 1 27.12537184204103 2.7642820643120634 8.112155335035519 -1 0 0
121 1 27.117284582263846 10.564683550738165 5.487157175773287 -1 0 0
334 1 21.964561255475946 2.7053600275707432 2.444970919493274 0 0 0
335 1 24.56806518339951 21.627521678355297 2.7328139858670433 0 -1 0
336 1 24.500356427218428 2.579635429270031 0.08423120903073308 0 0 0
337 1 23.222686263026404 1.1788542719894015 1.2453978756442345 0 0 0
324 1 15.036959134764059 4.136906543006928 1.3214413477795062 0 0 0
478 1 23.173575538702607 20.228695835594724 9.594871338007389 0 0 0
81 1 26.975260523830983 0.04708383651611809 5.456245084343806 -1 0 0
332 1 20.436905295828947 3.962000914072105 1.3453958099397365 0 0 0
347 1 19.103119394338293 5.368844852350354 2.776865327236379 0 0 0
61 1 27.06847837514026 16.401909383523904 0.22574136117944463 -1 0 0
355 1 24.436491757865028 5.411809165953979 2.7070221226340063 0 0 0
340 1 25.952471604355956 4.006717923765522 1.4226844591351042 0 0 0
470 1 17.843702707309873 20.410457305850887 9.548628975742432 0 0 0
346 1 16.286742587477555 8.047166632086697 2.7630374969990124 0 0 0
349 1 17.755397549844023 6.804623175922324 1.4665262543089916 0 0 0
348 1 18.961651420533073 8.186733758806508 0.06111905970488114 0 0 0
354 1 21.71879258636898 8.167225789373083 2.814125080868695 0 0 0
356 1 24.52761897808078 8.117513938241876 0.0265894164638154 0 0 0
357 1 23.15909027437639 6.744134960792232 1.3517948614538429 0 0 0
344 1 14.883796202423246 9.488326247671626 1.4749004953383387 0 0 0
479 1 25.877138045241807 17.460524169719807 9.582875878180461 0 0 0
365 1 16.244811001370298 10.653108403230169 0.03961034505765696 0 0 0
352 1 20.401406195564213 9.50969631269511 1.3974558504383539 0 0 0
367 1 18.88048196607298 10.704843323119695 2.7718696907712532 0 0 0
373 1 21.65320659037591 10.824810644585966 0.03517407723481148 0 0 0
375 1 24.297115475921686 10.760220617978176 2.6025267465599713 0 0 0
360 1 25.83882876519508 9.578252123365765 1.3080998602519383 0 0 0
369 1 17.66728257968974 12.037447563735359 1.25593050688107 0 0 0
377 1 23.059146204977196 12.27206441530598 1.357710878232715 0 0 0
471 1 20.58280489266933 17.656573813102128 9.383033385707488 0 0 0
364 1 14.931667012836526 14.8149270075099 1.2701318984801195 0 0 0
366 1 16.412216249976563 13.587267251797146 2.54517025718003 0 0 0
381 1 13.706031934994442 16.216997263361478 2.734891289339758 0 0 0
385 1 16.170350493015476 16.302644535293396 0.027758719674173912 0 0 0
22 1 27.071831743181026 8.226080043999094 2.6698542240251704 -1 0 0
372 1 20.416682910436315 14.700815533142416 1.441674278257459 0 0 0
374 1 21.71026776984823 13.377772531724334 2.867753530397237 0 0 0
387 1 19.09714146535852 16.286988723547978 2.5442256168543342 0 0 0
393 1 21.59199410436619 16.210322568091836 0.12845250205298642 0 0 0
458 1 23.120108026883074 14.814690356451845 9.278916383605827 0 0 0
395 1 24.583343923713713 16.225574671919308 2.7031890693101106 0 0 0
380 1 25.8738541789074 14.729958291316068 1.3770947243719118 0 0 0
389 1 17.636202987119695 17.580042311529784 1.3251160672343112 0 0 0
397 1 23.150278260707584 17.50677428672914 1.2470349576472715 0 0 0
382 1 13.623577798589917 19.085855188799194 0.24697465224310966 0 0 0
384 1 15.03169449903618 20.51624343896108 1.3982242117007668 0 0 0
386 1 16.34605030854834 19.07618003433613 2.6683940201222835 0 0 0
388 1 19.008709491412407 19.007983406437535 0.047794084613491224 0 0 0
392 1 20.511089359329485 20.29747263689926 1.38066478115642 0 0 0
394 1 21.781103489309828 18.843695857916018 2.5294847486972367 0 0 0
450 1 17.732581143528794 14.930138700785175 9.641467057041062 0 0 0
400 1 25.849852433825394 20.260656790622534 1.3534306491932833 0 0 0
323 1 14.99132914475786 1.4668695853218074 4.0723389261911755 0 0 0
402 1 13.694288837659084 2.7134868902840537 5.478032031621074 0 0 0
405 1 16.324894877244684 0.16642645756840754 5.466698360845374 0 0 0
331 1 20.510830820565964 1.4588470613037647 3.8681495198713587 0 0 0
408 1 18.90820268603413 2.61653225964532 5.35872067220709 0 0 0
413 1 21.785499776320474 0.006277503738100247 5.151537657636384 0 0 0
416 1 24.402488172844777 2.9008701677853574 5.427440300147051 0 0 0
339 1 25.758174978070596 1.5056441395328908 4.029808224624783 0 0 0
425 1 16.262483657600594 5.549597316870948 5.43759304007539 0 0 0
330 1 17.625055442330716 4.1147729639091395 4.135944641221828 0 0 0
433 1 21.761241063417707 5.4664543720033105 5.318359099259057 0 0 0
338 1 23.01619338610335 4.14882365614891 3.9963782025661776 0 0 0
343 1 14.806491259915239 6.7205425922762725 4.038913155429604 0 0 0
422 1 13.594867614611246 8.036716094523157 5.485965642272503 0 0 0
351 1 20.335457688030072 6.800796677639368 4.107920075196756 0 0 0
428 1 19.00824560243498 8.10982482207139 5.599254072653473 0 0 0
436 1 24.368784336529515 7.990827616451838 5.449628946092356 0 0 0
359 1 25.723127671289944 6.839924069787095 4.070241602037979 0 0 0
445 1 16.148826786160072 11.020142408983222 5.484022596840518 0 0 0
350 1 17.486770378183337 9.406626050378012 4.261322141929844 0 0 0
453 1 21.81077078395896 10.943622924243787 5.481134918953201 0 0 0
358 1 23.142399433585656 9.511400748811356 4.156679593171948 0 0 0
363 1 14.908751097750637 12.303684751322164 3.9246572981976287 0 0 0
371 1 20.207580873263478 12.050730934810055 4.0010044174037045 0 0 0
379 1 25.852961828585695 11.961117308402757 4.022817682653538 0 0 0
442 1 13.71196071900227 13.48199951865248 5.508894555301017 0 0 0
465 1 16.53633285054986 16.416320088284497 5.492513445441373 0 0 0
370 1 17.746243069179066 14.929966805821136 4.031062780923367 0 0 0
448 1 18.953430196901706 13.520285990063437 5.358394130354908 0 0 0
473 1 21.79353550372136 16.294805692605884 5.403229041606881 0 0 0
378 1 23.13092182978344 14.912525870897605 4.045295963560104 0 0 0
456 1 24.663982292155694 13.517220229839287 5.313997630106311 0 0 0
383 1 15.09329962542806 17.696511616655275 4.021822525771742 0 0 0
391 1 20.343600734939436 17.578604858073817 4.057581485085542 0 0 0
399 1 25.93857589817033 17.7101293001475 3.9735623406620095 0 0 0
462 1 13.696002326619823 19.16619379885388 5.351138279026439 0 0 0
390 1 17.625983457836245 20.50875117558053 4.057671985009537 0 0 0
468 1 19.207646201825042 19.22493478175029 5.304332011850773 0 0 0
398 1 23.18361738299034 20.12719999012534 4.046750290857738 0 0 0
476 1 24.637748086081803 19.010052275009254 5.4894788660872855 0 0 0
401 1 13.582855581512911 0.007297525516031477 8.278710627673654 0 0 0
406 1 16.191597455800576 2.905718893464603 8.177086737582234 0 0 0
409 1 17.61050607683406 1.5605034994881022 6.956515012848222 0 0 0
407 1 18.986056743689467 0.2236756658401001 8.255594482877532 0 0 0
414 1 21.748809118858723 2.866147010849762 7.967913116017151 0 0 0
415 1 24.286262553209248 0.05990147216434236 8.241938890586487 0 0 0
417 1 23.07805727775547 1.355420264130583 6.620605238577656 0 0 0
404 1 14.79543408164737 4.188843258754603 6.7881675446004595 0 0 0
463 1 14.94109670786679 17.647594087360982 9.306259450841699 0 0 0
412 1 20.334101107243946 4.091741049501866 6.470734307324326 0 0 0
427 1 19.018863056285554 5.3132021336951265 8.040852292730714 0 0 0
435 1 24.448030259934644 5.538825281281243 8.218714780111682 0 0 0
420 1 25.77199571783213 4.1983525121118195 6.839623445182263 0 0 0
426 1 16.263122611594603 8.181776017470854 8.173187712358336 0 0 0
429 1 17.59943002726086 6.807144559605054 6.84749088928882 0 0 0
434 1 21.571633338659538 8.153490876311807 8.099443654999272 0 0 0
437 1 22.93176662825126 6.735811123214808 6.891085525401335 0 0 0
424 1 14.973227720362553 9.464913824117733 6.825754305858297 0 0 0
441 1 13.645071712353541 10.911821989387015 8.220390130314108 0 0 0
432 1 20.365706222472227 9.610633483638615 6.764147541118638 0 0 0
447 1 19.091355335686067 10.870629034793328 8.209357909275925 0 0 0
455 1 24.25648881419248 10.838354832110788 8.04890598618949 0 0 0
440 1 25.647737981423123 9.340642494311146 6.86989800386682 0 0 0
449 1 17.69227940919481 12.241467099821781 6.906098800658527 0 0 0
457 1 23.10265960641222 12.488217745125906 6.712820520637726 0 0 0
444 1 15.007762238847128 15.019941014011543 6.626991484647778 0 0 0